 Entering Gaussian System, Link 0=g09
 Initial command:
 /ihome/crc/build/g09/g09-D.01/TAR/g09/l1.exe "/scratch/slurm-3848437/Gau-20470.inp" -scrdir="/scratch/slurm-3848437/"
 Entering Link 1 = /ihome/crc/build/g09/g09-D.01/TAR/g09/l1.exe PID=     20471.
  
 Copyright (c) 1988,1990,1992,1993,1995,1998,2003,2009,2013,
            Gaussian, Inc.  All Rights Reserved.
  
 This is part of the Gaussian(R) 09 program.  It is based on
 the Gaussian(R) 03 system (copyright 2003, Gaussian, Inc.),
 the Gaussian(R) 98 system (copyright 1998, Gaussian, Inc.),
 the Gaussian(R) 94 system (copyright 1995, Gaussian, Inc.),
 the Gaussian 92(TM) system (copyright 1992, Gaussian, Inc.),
 the Gaussian 90(TM) system (copyright 1990, Gaussian, Inc.),
 the Gaussian 88(TM) system (copyright 1988, Gaussian, Inc.),
 the Gaussian 86(TM) system (copyright 1986, Carnegie Mellon
 University), and the Gaussian 82(TM) system (copyright 1983,
 Carnegie Mellon University). Gaussian is a federally registered
 trademark of Gaussian, Inc.
  
 This software contains proprietary and confidential information,
 including trade secrets, belonging to Gaussian, Inc.
  
 This software is provided under written license and may be
 used, copied, transmitted, or stored only in accord with that
 written license.
  
 The following legend is applicable only to US Government
 contracts under FAR:
  
                    RESTRICTED RIGHTS LEGEND
  
 Use, reproduction and disclosure by the US Government is
 subject to restrictions as set forth in subparagraphs (a)
 and (c) of the Commercial Computer Software - Restricted
 Rights clause in FAR 52.227-19.
  
 Gaussian, Inc.
 340 Quinnipiac St., Bldg. 40, Wallingford CT 06492
  
  
 ---------------------------------------------------------------
 Warning -- This program may not be used in any manner that
 competes with the business of Gaussian, Inc. or will provide
 assistance to any competitor of Gaussian, Inc.  The licensee
 of this program is prohibited from giving any competitor of
 Gaussian, Inc. access to this program.  By using this program,
 the user acknowledges that Gaussian, Inc. is engaged in the
 business of creating and licensing software in the field of
 computational chemistry and represents and warrants to the
 licensee that it is not a competitor of Gaussian, Inc. and that
 it will not use this program in any manner prohibited above.
 ---------------------------------------------------------------
  

 Cite this work as:
 Gaussian 09, Revision D.01,
 M. J. Frisch, G. W. Trucks, H. B. Schlegel, G. E. Scuseria, 
 M. A. Robb, J. R. Cheeseman, G. Scalmani, V. Barone, B. Mennucci, 
 G. A. Petersson, H. Nakatsuji, M. Caricato, X. Li, H. P. Hratchian, 
 A. F. Izmaylov, J. Bloino, G. Zheng, J. L. Sonnenberg, M. Hada, 
 M. Ehara, K. Toyota, R. Fukuda, J. Hasegawa, M. Ishida, T. Nakajima, 
 Y. Honda, O. Kitao, H. Nakai, T. Vreven, J. A. Montgomery, Jr., 
 J. E. Peralta, F. Ogliaro, M. Bearpark, J. J. Heyd, E. Brothers, 
 K. N. Kudin, V. N. Staroverov, T. Keith, R. Kobayashi, J. Normand, 
 K. Raghavachari, A. Rendell, J. C. Burant, S. S. Iyengar, J. Tomasi, 
 M. Cossi, N. Rega, J. M. Millam, M. Klene, J. E. Knox, J. B. Cross, 
 V. Bakken, C. Adamo, J. Jaramillo, R. Gomperts, R. E. Stratmann, 
 O. Yazyev, A. J. Austin, R. Cammi, C. Pomelli, J. W. Ochterski, 
 R. L. Martin, K. Morokuma, V. G. Zakrzewski, G. A. Voth, 
 P. Salvador, J. J. Dannenberg, S. Dapprich, A. D. Daniels, 
 O. Farkas, J. B. Foresman, J. V. Ortiz, J. Cioslowski, 
 and D. J. Fox, Gaussian, Inc., Wallingford CT, 2013.
 
 ******************************************
 Gaussian 09:  EM64L-G09RevD.01 24-Apr-2013
                 3-Apr-2020 
 ******************************************
 %Nproc=8
 Will use up to    8 processors via shared memory.
 %mem=20GB
 ----------------------------------------------------------------------
 #m062x/6-311g(d,p) opt=maxcycle=640 freq nosymm scf=(maxcycle=999) gfi
 nput iop(6/7=3) scrf=(cpcm,solvent=water) Temperature=293
 ----------------------------------------------------------------------
 1/6=640,14=-1,18=20,19=15,26=3,38=1,112=293000/1,3;
 2/9=110,12=2,15=1,17=6,18=5,40=1/2;
 3/5=4,6=6,7=101,11=2,16=1,24=10,25=1,30=1,70=2101,71=1,72=1,74=-55/1,2,3;
 4//1;
 5/5=2,7=999,38=5,53=1/2;
 6/7=3,8=2,9=2,10=2,28=1/1;
 7/30=1/1,2,3,16;
 1/6=640,14=-1,18=20,19=15,26=3/3(2);
 2/9=110,15=1/2;
 99//99;
 2/9=110,15=1/2;
 3/5=4,6=6,7=101,11=2,16=1,25=1,30=1,70=2105,71=1,72=1,74=-55/1,2,3;
 4/5=5,16=3,69=1/1;
 5/5=2,7=999,38=5,53=1/2;
 7/30=1/1,2,3,16;
 1/6=640,14=-1,18=20,19=15,26=3/3(-5);
 2/9=110,15=1/2;
 6/7=3,8=2,9=2,10=2,19=2,28=1/1;
 99/9=1/99;
 -----------------
 benezene c1ccccc1
 -----------------
 Symbolic Z-matrix:
 Charge =  0 Multiplicity = 1
 C                    -0.75027   1.17431   0.01735 
 C                     0.64043   1.24753   0.03285 
 C                     1.39928   0.07971   0.03225 
 C                     0.76743  -1.16132   0.01614 
 C                    -0.62327  -1.23454   0.00064 
 C                    -1.38212  -0.06672   0.00124 
 H                    -1.31258   2.03966   0.0178 
 H                     1.10863   2.16713   0.04478 
 H                     2.42979   0.13397   0.04373 
 H                     1.32974  -2.02667   0.0157 
 H                    -1.09147  -2.15414  -0.0113 
 H                    -2.41263  -0.12097  -0.01024 
 

 GradGradGradGradGradGradGradGradGradGradGradGradGradGradGradGradGradGrad
 Berny optimization.
 Initialization pass.
                           ----------------------------
                           !    Initial Parameters    !
                           ! (Angstroms and Degrees)  !
 --------------------------                            --------------------------
 ! Name  Definition              Value          Derivative Info.                !
 --------------------------------------------------------------------------------
 ! R1    R(1,2)                  1.3927         estimate D2E/DX2                !
 ! R2    R(1,6)                  1.3927         estimate D2E/DX2                !
 ! R3    R(1,7)                  1.032          estimate D2E/DX2                !
 ! R4    R(2,3)                  1.3927         estimate D2E/DX2                !
 ! R5    R(2,8)                  1.032          estimate D2E/DX2                !
 ! R6    R(3,4)                  1.3927         estimate D2E/DX2                !
 ! R7    R(3,9)                  1.032          estimate D2E/DX2                !
 ! R8    R(4,5)                  1.3927         estimate D2E/DX2                !
 ! R9    R(4,10)                 1.032          estimate D2E/DX2                !
 ! R10   R(5,6)                  1.3927         estimate D2E/DX2                !
 ! R11   R(5,11)                 1.032          estimate D2E/DX2                !
 ! R12   R(6,12)                 1.032          estimate D2E/DX2                !
 ! A1    A(2,1,6)              120.0003         estimate D2E/DX2                !
 ! A2    A(2,1,7)              119.9999         estimate D2E/DX2                !
 ! A3    A(6,1,7)              119.9999         estimate D2E/DX2                !
 ! A4    A(1,2,3)              119.9996         estimate D2E/DX2                !
 ! A5    A(1,2,8)              120.0003         estimate D2E/DX2                !
 ! A6    A(3,2,8)              120.0001         estimate D2E/DX2                !
 ! A7    A(2,3,4)              120.0001         estimate D2E/DX2                !
 ! A8    A(2,3,9)              119.9994         estimate D2E/DX2                !
 ! A9    A(4,3,9)              120.0005         estimate D2E/DX2                !
 ! A10   A(3,4,5)              120.0003         estimate D2E/DX2                !
 ! A11   A(3,4,10)             119.9999         estimate D2E/DX2                !
 ! A12   A(5,4,10)             119.9999         estimate D2E/DX2                !
 ! A13   A(4,5,6)              119.9996         estimate D2E/DX2                !
 ! A14   A(4,5,11)             120.0003         estimate D2E/DX2                !
 ! A15   A(6,5,11)             120.0001         estimate D2E/DX2                !
 ! A16   A(1,6,5)              120.0001         estimate D2E/DX2                !
 ! A17   A(1,6,12)             119.9999         estimate D2E/DX2                !
 ! A18   A(5,6,12)             120.0            estimate D2E/DX2                !
 ! D1    D(6,1,2,3)             -0.0005         estimate D2E/DX2                !
 ! D2    D(6,1,2,8)            179.9995         estimate D2E/DX2                !
 ! D3    D(7,1,2,3)            179.9997         estimate D2E/DX2                !
 ! D4    D(7,1,2,8)             -0.0004         estimate D2E/DX2                !
 ! D5    D(2,1,6,5)              0.0005         estimate D2E/DX2                !
 ! D6    D(2,1,6,12)           179.9996         estimate D2E/DX2                !
 ! D7    D(7,1,6,5)           -179.9997         estimate D2E/DX2                !
 ! D8    D(7,1,6,12)            -0.0005         estimate D2E/DX2                !
 ! D9    D(1,2,3,4)              0.0005         estimate D2E/DX2                !
 ! D10   D(1,2,3,9)            179.9996         estimate D2E/DX2                !
 ! D11   D(8,2,3,4)           -179.9995         estimate D2E/DX2                !
 ! D12   D(8,2,3,9)             -0.0004         estimate D2E/DX2                !
 ! D13   D(2,3,4,5)             -0.0005         estimate D2E/DX2                !
 ! D14   D(2,3,4,10)          -179.9997         estimate D2E/DX2                !
 ! D15   D(9,3,4,5)           -179.9996         estimate D2E/DX2                !
 ! D16   D(9,3,4,10)             0.0011         estimate D2E/DX2                !
 ! D17   D(3,4,5,6)              0.0005         estimate D2E/DX2                !
 ! D18   D(3,4,5,11)           179.9998         estimate D2E/DX2                !
 ! D19   D(10,4,5,6)           179.9997         estimate D2E/DX2                !
 ! D20   D(10,4,5,11)           -0.0009         estimate D2E/DX2                !
 ! D21   D(4,5,6,1)             -0.0005         estimate D2E/DX2                !
 ! D22   D(4,5,6,12)          -179.9996         estimate D2E/DX2                !
 ! D23   D(11,5,6,1)          -179.9998         estimate D2E/DX2                !
 ! D24   D(11,5,6,12)            0.001          estimate D2E/DX2                !
 --------------------------------------------------------------------------------
 Trust Radius=3.00D-01 FncErr=1.00D-07 GrdErr=1.00D-06
 Number of steps in this run=    100 maximum allowed number of steps=    100.
 GradGradGradGradGradGradGradGradGradGradGradGradGradGradGradGradGradGrad

                          Input orientation:                          
 ---------------------------------------------------------------------
 Center     Atomic      Atomic             Coordinates (Angstroms)
 Number     Number       Type             X           Y           Z
 ---------------------------------------------------------------------
      1          6           0       -0.750270    1.174310    0.017350
      2          6           0        0.640430    1.247530    0.032850
      3          6           0        1.399280    0.079710    0.032250
      4          6           0        0.767430   -1.161320    0.016140
      5          6           0       -0.623270   -1.234540    0.000640
      6          6           0       -1.382120   -0.066720    0.001240
      7          1           0       -1.312580    2.039660    0.017800
      8          1           0        1.108630    2.167130    0.044780
      9          1           0        2.429790    0.133970    0.043730
     10          1           0        1.329740   -2.026670    0.015700
     11          1           0       -1.091470   -2.154140   -0.011300
     12          1           0       -2.412630   -0.120970   -0.010240
 ---------------------------------------------------------------------
                    Distance matrix (angstroms):
                    1          2          3          4          5
     1  C    0.000000
     2  C    1.392712   0.000000
     3  C    2.412247   1.392716   0.000000
     4  C    2.785423   2.412253   1.392713   0.000000
     5  C    2.412253   2.785435   2.412252   1.392712   0.000000
     6  C    1.392713   2.412252   2.785424   2.412247   1.392716
     7  H    1.032000   2.107592   3.346012   3.817423   3.346017
     8  H    2.107594   1.031997   2.107595   3.346015   3.817432
     9  H    3.346010   2.107592   1.032001   2.107600   3.346020
    10  H    3.817423   3.346017   2.107593   1.032000   2.107592
    11  H    3.346015   3.817432   3.346015   2.107594   1.031997
    12  H    2.107594   3.346016   3.817425   3.346013   2.107597
                    6          7          8          9         10
     6  C    0.000000
     7  H    2.107593   0.000000
     8  H    3.346015   2.424713   0.000000
     9  H    3.817426   4.199721   2.424707   0.000000
    10  H    3.346012   4.849423   4.199725   2.424719   0.000000
    11  H    2.107595   4.199726   4.849429   4.199732   2.424713
    12  H    1.032001   2.424710   4.199726   4.849427   4.199726
                   11         12
    11  H    0.000000
    12  H    2.424715   0.000000
 Symmetry turned off by external request.
 Stoichiometry    C6H6
 Framework group  C1[X(C6H6)]
 Deg. of freedom    30
 Full point group                 C1      NOp   1
 Rotational constants (GHZ):      5.7689738      5.7689422      2.8844790
 Standard basis: 6-311G(d,p) (5D, 7F)
 AO basis set in the form of general basis input (Overlap normalization):
      1 0
 S   6 1.00       0.000000000000
      0.4563240000D+04  0.1966650249D-02
      0.6820240000D+03  0.1523060193D-01
      0.1549730000D+03  0.7612690966D-01
      0.4445530000D+02  0.2608010331D+00
      0.1302900000D+02  0.6164620782D+00
      0.1827730000D+01  0.2210060280D+00
 SP   3 1.00       0.000000000000
      0.2096420000D+02  0.1146600807D+00  0.4024869267D-01
      0.4803310000D+01  0.9199996477D+00  0.2375939567D+00
      0.1459330000D+01 -0.3030682134D-02  0.8158538515D+00
 SP   1 1.00       0.000000000000
      0.4834560000D+00  0.1000000000D+01  0.1000000000D+01
 SP   1 1.00       0.000000000000
      0.1455850000D+00  0.1000000000D+01  0.1000000000D+01
 D   1 1.00       0.000000000000
      0.6260000000D+00  0.1000000000D+01
 ****
      2 0
 S   6 1.00       0.000000000000
      0.4563240000D+04  0.1966650249D-02
      0.6820240000D+03  0.1523060193D-01
      0.1549730000D+03  0.7612690966D-01
      0.4445530000D+02  0.2608010331D+00
      0.1302900000D+02  0.6164620782D+00
      0.1827730000D+01  0.2210060280D+00
 SP   3 1.00       0.000000000000
      0.2096420000D+02  0.1146600807D+00  0.4024869267D-01
      0.4803310000D+01  0.9199996477D+00  0.2375939567D+00
      0.1459330000D+01 -0.3030682134D-02  0.8158538515D+00
 SP   1 1.00       0.000000000000
      0.4834560000D+00  0.1000000000D+01  0.1000000000D+01
 SP   1 1.00       0.000000000000
      0.1455850000D+00  0.1000000000D+01  0.1000000000D+01
 D   1 1.00       0.000000000000
      0.6260000000D+00  0.1000000000D+01
 ****
      3 0
 S   6 1.00       0.000000000000
      0.4563240000D+04  0.1966650249D-02
      0.6820240000D+03  0.1523060193D-01
      0.1549730000D+03  0.7612690966D-01
      0.4445530000D+02  0.2608010331D+00
      0.1302900000D+02  0.6164620782D+00
      0.1827730000D+01  0.2210060280D+00
 SP   3 1.00       0.000000000000
      0.2096420000D+02  0.1146600807D+00  0.4024869267D-01
      0.4803310000D+01  0.9199996477D+00  0.2375939567D+00
      0.1459330000D+01 -0.3030682134D-02  0.8158538515D+00
 SP   1 1.00       0.000000000000
      0.4834560000D+00  0.1000000000D+01  0.1000000000D+01
 SP   1 1.00       0.000000000000
      0.1455850000D+00  0.1000000000D+01  0.1000000000D+01
 D   1 1.00       0.000000000000
      0.6260000000D+00  0.1000000000D+01
 ****
      4 0
 S   6 1.00       0.000000000000
      0.4563240000D+04  0.1966650249D-02
      0.6820240000D+03  0.1523060193D-01
      0.1549730000D+03  0.7612690966D-01
      0.4445530000D+02  0.2608010331D+00
      0.1302900000D+02  0.6164620782D+00
      0.1827730000D+01  0.2210060280D+00
 SP   3 1.00       0.000000000000
      0.2096420000D+02  0.1146600807D+00  0.4024869267D-01
      0.4803310000D+01  0.9199996477D+00  0.2375939567D+00
      0.1459330000D+01 -0.3030682134D-02  0.8158538515D+00
 SP   1 1.00       0.000000000000
      0.4834560000D+00  0.1000000000D+01  0.1000000000D+01
 SP   1 1.00       0.000000000000
      0.1455850000D+00  0.1000000000D+01  0.1000000000D+01
 D   1 1.00       0.000000000000
      0.6260000000D+00  0.1000000000D+01
 ****
      5 0
 S   6 1.00       0.000000000000
      0.4563240000D+04  0.1966650249D-02
      0.6820240000D+03  0.1523060193D-01
      0.1549730000D+03  0.7612690966D-01
      0.4445530000D+02  0.2608010331D+00
      0.1302900000D+02  0.6164620782D+00
      0.1827730000D+01  0.2210060280D+00
 SP   3 1.00       0.000000000000
      0.2096420000D+02  0.1146600807D+00  0.4024869267D-01
      0.4803310000D+01  0.9199996477D+00  0.2375939567D+00
      0.1459330000D+01 -0.3030682134D-02  0.8158538515D+00
 SP   1 1.00       0.000000000000
      0.4834560000D+00  0.1000000000D+01  0.1000000000D+01
 SP   1 1.00       0.000000000000
      0.1455850000D+00  0.1000000000D+01  0.1000000000D+01
 D   1 1.00       0.000000000000
      0.6260000000D+00  0.1000000000D+01
 ****
      6 0
 S   6 1.00       0.000000000000
      0.4563240000D+04  0.1966650249D-02
      0.6820240000D+03  0.1523060193D-01
      0.1549730000D+03  0.7612690966D-01
      0.4445530000D+02  0.2608010331D+00
      0.1302900000D+02  0.6164620782D+00
      0.1827730000D+01  0.2210060280D+00
 SP   3 1.00       0.000000000000
      0.2096420000D+02  0.1146600807D+00  0.4024869267D-01
      0.4803310000D+01  0.9199996477D+00  0.2375939567D+00
      0.1459330000D+01 -0.3030682134D-02  0.8158538515D+00
 SP   1 1.00       0.000000000000
      0.4834560000D+00  0.1000000000D+01  0.1000000000D+01
 SP   1 1.00       0.000000000000
      0.1455850000D+00  0.1000000000D+01  0.1000000000D+01
 D   1 1.00       0.000000000000
      0.6260000000D+00  0.1000000000D+01
 ****
      7 0
 S   3 1.00       0.000000000000
      0.3386500000D+02  0.2549381454D-01
      0.5094790000D+01  0.1903731086D+00
      0.1158790000D+01  0.8521614860D+00
 S   1 1.00       0.000000000000
      0.3258400000D+00  0.1000000000D+01
 S   1 1.00       0.000000000000
      0.1027410000D+00  0.1000000000D+01
 P   1 1.00       0.000000000000
      0.7500000000D+00  0.1000000000D+01
 ****
      8 0
 S   3 1.00       0.000000000000
      0.3386500000D+02  0.2549381454D-01
      0.5094790000D+01  0.1903731086D+00
      0.1158790000D+01  0.8521614860D+00
 S   1 1.00       0.000000000000
      0.3258400000D+00  0.1000000000D+01
 S   1 1.00       0.000000000000
      0.1027410000D+00  0.1000000000D+01
 P   1 1.00       0.000000000000
      0.7500000000D+00  0.1000000000D+01
 ****
      9 0
 S   3 1.00       0.000000000000
      0.3386500000D+02  0.2549381454D-01
      0.5094790000D+01  0.1903731086D+00
      0.1158790000D+01  0.8521614860D+00
 S   1 1.00       0.000000000000
      0.3258400000D+00  0.1000000000D+01
 S   1 1.00       0.000000000000
      0.1027410000D+00  0.1000000000D+01
 P   1 1.00       0.000000000000
      0.7500000000D+00  0.1000000000D+01
 ****
     10 0
 S   3 1.00       0.000000000000
      0.3386500000D+02  0.2549381454D-01
      0.5094790000D+01  0.1903731086D+00
      0.1158790000D+01  0.8521614860D+00
 S   1 1.00       0.000000000000
      0.3258400000D+00  0.1000000000D+01
 S   1 1.00       0.000000000000
      0.1027410000D+00  0.1000000000D+01
 P   1 1.00       0.000000000000
      0.7500000000D+00  0.1000000000D+01
 ****
     11 0
 S   3 1.00       0.000000000000
      0.3386500000D+02  0.2549381454D-01
      0.5094790000D+01  0.1903731086D+00
      0.1158790000D+01  0.8521614860D+00
 S   1 1.00       0.000000000000
      0.3258400000D+00  0.1000000000D+01
 S   1 1.00       0.000000000000
      0.1027410000D+00  0.1000000000D+01
 P   1 1.00       0.000000000000
      0.7500000000D+00  0.1000000000D+01
 ****
     12 0
 S   3 1.00       0.000000000000
      0.3386500000D+02  0.2549381454D-01
      0.5094790000D+01  0.1903731086D+00
      0.1158790000D+01  0.8521614860D+00
 S   1 1.00       0.000000000000
      0.3258400000D+00  0.1000000000D+01
 S   1 1.00       0.000000000000
      0.1027410000D+00  0.1000000000D+01
 P   1 1.00       0.000000000000
      0.7500000000D+00  0.1000000000D+01
 ****

   144 basis functions,   240 primitive gaussians,   150 cartesian basis functions
    21 alpha electrons       21 beta electrons
       nuclear repulsion energy       205.2812503257 Hartrees.
 NAtoms=   12 NActive=   12 NUniq=   12 SFac= 1.00D+00 NAtFMM=   60 NAOKFM=F Big=F
 Integral buffers will be    131072 words long.
 Raffenetti 2 integral format.
 Two-electron integral symmetry is turned off.
 ------------------------------------------------------------------------------
 Polarizable Continuum Model (PCM)
 =================================
 Model                : C-PCM.
 Atomic radii         : UFF (Universal Force Field).
 Polarization charges : Total charges.
 Charge compensation  : None.
 Solution method      : On-the-fly selection.
 Cavity type          : Scaled VdW (van der Waals Surface) (Alpha=1.100).
 Cavity algorithm     : GePol (No added spheres)
                        Default sphere list used, NSphG=   12.
                        Lebedev-Laikov grids with approx.  5.0 points / Ang**2.
                        Smoothing algorithm: Karplus/York (Gamma=1.0000).
                        Polarization charges: spherical gaussians, with
                                              point-specific exponents (IZeta= 3).
                        Self-potential: point-specific (ISelfS= 7).
                        Self-field    : sphere-specific E.n sum rule (ISelfD= 2).
 1st derivatives      : Analytical E(r).r(x)/FMM algorithm (CHGder, D1EAlg=3).
                        Cavity 1st derivative terms included.
 Solvent              : Water, Eps=  78.355300 Eps(inf)=   1.777849
 ------------------------------------------------------------------------------
 Spheres list:
 ISph  on   Nord     Re0    Alpha      Xe            Ye            Ze
    1   C      1    1.9255  1.100     -0.750270      1.174310      0.017350
    2   C      2    1.9255  1.100      0.640430      1.247530      0.032850
    3   C      3    1.9255  1.100      1.399280      0.079710      0.032250
    4   C      4    1.9255  1.100      0.767430     -1.161320      0.016140
    5   C      5    1.9255  1.100     -0.623270     -1.234540      0.000640
    6   C      6    1.9255  1.100     -1.382120     -0.066720      0.001240
    7   H      7    1.4430  1.100     -1.312580      2.039660      0.017800
    8   H      8    1.4430  1.100      1.108630      2.167130      0.044780
    9   H      9    1.4430  1.100      2.429790      0.133970      0.043730
   10   H     10    1.4430  1.100      1.329740     -2.026670      0.015700
   11   H     11    1.4430  1.100     -1.091470     -2.154140     -0.011300
   12   H     12    1.4430  1.100     -2.412630     -0.120970     -0.010240
 ------------------------------------------------------------------------------
 One-electron integrals computed using PRISM.
 NBasis=   144 RedAO= T EigKep=  2.14D-04  NBF=   144
 NBsUse=   144 1.00D-06 EigRej= -1.00D+00 NBFU=   144
 ExpMin= 1.03D-01 ExpMax= 4.56D+03 ExpMxC= 6.82D+02 IAcc=1 IRadAn=         1 AccDes= 0.00D+00
 Harris functional with IExCor= 1009 and IRadAn=       1 diagonalized for initial guess.
 HarFok:  IExCor= 1009 AccDes= 0.00D+00 IRadAn=         1 IDoV= 1 UseB2=F ITyADJ=14
 ICtDFT=  3500011 ScaDFX=  1.000000  1.000000  1.000000  1.000000
 FoFCou: FMM=F IPFlag=           0 FMFlag=      100000 FMFlg1=           0
         NFxFlg=           0 DoJE=T BraDBF=F KetDBF=T FulRan=T
         wScrn=  0.000000 ICntrl=     500 IOpCl=  0 I1Cent=   200000004 NGrid=           0
         NMat0=    1 NMatS0=      1 NMatT0=    0 NMatD0=    1 NMtDS0=    0 NMtDT0=    0
 Symmetry not used in FoFCou.
 Keep R1 ints in memory in canonical form, NReq=59876439.
 Requested convergence on RMS density matrix=1.00D-08 within 999 cycles.
 Requested convergence on MAX density matrix=1.00D-06.
 Requested convergence on             energy=1.00D-06.
 No special actions if energy rises.
 Inv3:  Mode=1 IEnd=     3421872.
 Iteration    1 A*A^-1 deviation from unit magnitude is 7.77D-15 for    833.
 Iteration    1 A*A^-1 deviation from orthogonality  is 3.06D-15 for   1035    468.
 Iteration    1 A^-1*A deviation from unit magnitude is 6.88D-15 for    833.
 Iteration    1 A^-1*A deviation from orthogonality  is 2.91D-15 for    614    329.
 Error on total polarization charges =  0.00938
 SCF Done:  E(RM062X) =  -232.188116606     A.U. after    9 cycles
            NFock=  9  Conv=0.21D-08     -V/T= 2.0021

 **********************************************************************

            Population analysis using the SCF density.

 **********************************************************************

 Alpha  occ. eigenvalues --  -10.53841 -10.53806 -10.53805 -10.53726 -10.53725
 Alpha  occ. eigenvalues --  -10.53686  -0.96339  -0.84966  -0.84964  -0.69605
 Alpha  occ. eigenvalues --   -0.69604  -0.61386  -0.55135  -0.51429  -0.49751
 Alpha  occ. eigenvalues --   -0.49748  -0.44279  -0.40930  -0.40929  -0.31129
 Alpha  occ. eigenvalues --   -0.31129
 Alpha virt. eigenvalues --    0.02317   0.02318   0.08894   0.11951   0.11954
 Alpha virt. eigenvalues --    0.15253   0.15254   0.18148   0.19840   0.30969
 Alpha virt. eigenvalues --    0.30971   0.33534   0.33535   0.36160   0.38402
 Alpha virt. eigenvalues --    0.42147   0.45447   0.45448   0.48269   0.48272
 Alpha virt. eigenvalues --    0.48732   0.48808   0.50667   0.50668   0.56816
 Alpha virt. eigenvalues --    0.56817   0.58953   0.65178   0.65489   0.65491
 Alpha virt. eigenvalues --    0.67151   0.67154   0.68206   0.73156   0.76745
 Alpha virt. eigenvalues --    0.76746   0.77143   0.77145   0.87542   0.90181
 Alpha virt. eigenvalues --    0.90566   0.90567   0.99258   1.06271   1.06274
 Alpha virt. eigenvalues --    1.06554   1.13917   1.13926   1.20076   1.20081
 Alpha virt. eigenvalues --    1.28411   1.32612   1.44546   1.49706   1.49709
 Alpha virt. eigenvalues --    1.51653   1.61169   1.61187   1.61192   1.63028
 Alpha virt. eigenvalues --    1.63033   1.69180   1.69184   1.78264   1.79070
 Alpha virt. eigenvalues --    1.79074   1.84683   1.84690   1.93490   1.93991
 Alpha virt. eigenvalues --    1.93999   1.95945   1.95952   1.96477   1.98009
 Alpha virt. eigenvalues --    2.04437   2.04439   2.14905   2.14914   2.22714
 Alpha virt. eigenvalues --    2.34532   2.34585   2.37025   2.39725   2.44919
 Alpha virt. eigenvalues --    2.44932   2.59477   2.62909   2.67108   2.67143
 Alpha virt. eigenvalues --    2.68009   2.68012   2.69993   2.72985   2.72990
 Alpha virt. eigenvalues --    2.76943   2.78211   2.78213   2.90920   2.90926
 Alpha virt. eigenvalues --    3.00797   3.02286   3.02291   3.10898   3.14237
 Alpha virt. eigenvalues --    3.39771   3.39785   3.55324   3.55990   3.56007
 Alpha virt. eigenvalues --    3.79371   4.08818   4.08859   4.19700   4.19730
 Alpha virt. eigenvalues --    4.21809   4.85737  23.69284  24.08043  24.08044
 Alpha virt. eigenvalues --   24.21011  24.21012  24.31237
     Molecular Orbital Coefficients:
                           1         2         3         4         5
                           O         O         O         O         O
     Eigenvalues --   -10.53841 -10.53806 -10.53805 -10.53726 -10.53725
   1 1   C  1S          0.22943   0.16164   0.28217  -0.16392  -0.28196
   2        2S          0.18875   0.13287   0.23195  -0.13473  -0.23174
   3        2PX         0.00016   0.00055  -0.00026   0.00043  -0.00010
   4        2PY        -0.00025   0.00030  -0.00026   0.00014  -0.00031
   5        2PZ         0.00000   0.00001   0.00000   0.00001   0.00000
   6        3S          0.00512   0.00404   0.00706  -0.00393  -0.00676
   7        3PX        -0.00090  -0.00205   0.00096  -0.00105   0.00032
   8        3PY         0.00137  -0.00112   0.00099  -0.00042   0.00068
   9        3PZ         0.00000  -0.00003   0.00002  -0.00001   0.00001
  10        4S         -0.00110  -0.00049  -0.00097   0.00205   0.00354
  11        4PX         0.00006  -0.00045  -0.00073   0.00122   0.00168
  12        4PY        -0.00009   0.00061   0.00117  -0.00147  -0.00282
  13        4PZ         0.00000   0.00000   0.00000   0.00000   0.00000
  14        5D 0       -0.00027  -0.00030  -0.00052   0.00054   0.00094
  15        5D+1        0.00000   0.00000   0.00001  -0.00002  -0.00002
  16        5D-1        0.00000   0.00002   0.00000   0.00000  -0.00002
  17        5D+2       -0.00032  -0.00121   0.00053  -0.00061   0.00026
  18        5D-2       -0.00072   0.00035  -0.00057   0.00017  -0.00030
  19 2   C  1S          0.23151   0.32660   0.00037   0.32470  -0.00023
  20        2S          0.19046   0.26847   0.00031   0.26686  -0.00019
  21        2PX        -0.00013  -0.00004  -0.00064   0.00011   0.00045
  22        2PY        -0.00026  -0.00008   0.00033   0.00021  -0.00023
  23        2PZ         0.00000   0.00000   0.00000   0.00000   0.00000
  24        3S          0.00517   0.00817   0.00001   0.00779  -0.00001
  25        3PX         0.00074   0.00016   0.00240  -0.00021  -0.00114
  26        3PY         0.00146   0.00031  -0.00122  -0.00041   0.00058
  27        3PZ         0.00002   0.00000   0.00002  -0.00001  -0.00001
  28        4S         -0.00113  -0.00118   0.00000  -0.00408   0.00000
  29        4PX        -0.00004   0.00074   0.00005   0.00172   0.00023
  30        4PY        -0.00008   0.00145  -0.00002   0.00338  -0.00012
  31        4PZ         0.00000   0.00002   0.00000   0.00004   0.00000
  32        5D 0       -0.00028  -0.00060   0.00000  -0.00108   0.00000
  33        5D+1        0.00000   0.00001  -0.00002   0.00002   0.00001
  34        5D-1        0.00001   0.00001   0.00000   0.00001   0.00000
  35        5D+2       -0.00047  -0.00021  -0.00116   0.00011   0.00059
  36        5D-2        0.00064   0.00028  -0.00085  -0.00016   0.00043
  37 3   C  1S          0.22953   0.16221  -0.28180  -0.16360   0.28219
  38        2S          0.18883   0.13334  -0.23164  -0.13446   0.23193
  39        2PX        -0.00030  -0.00008   0.00006  -0.00014   0.00019
  40        2PY        -0.00001   0.00062   0.00037   0.00043   0.00026
  41        2PZ         0.00000   0.00000   0.00000   0.00000   0.00000
  42        3S          0.00512   0.00406  -0.00705  -0.00392   0.00677
  43        3PX         0.00164   0.00030  -0.00023   0.00028  -0.00036
  44        3PY         0.00008  -0.00232  -0.00136  -0.00109  -0.00066
  45        3PZ         0.00002  -0.00001  -0.00001  -0.00001  -0.00001
  46        4S         -0.00111  -0.00050   0.00097   0.00205  -0.00355
  47        4PX        -0.00011   0.00076  -0.00137  -0.00190   0.00327
  48        4PY        -0.00001  -0.00001  -0.00010   0.00012   0.00030
  49        4PZ         0.00000   0.00001  -0.00002  -0.00002   0.00004
  50        5D 0       -0.00027  -0.00030   0.00052   0.00054  -0.00094
  51        5D+1        0.00001   0.00002  -0.00001  -0.00001   0.00002
  52        5D-1        0.00000   0.00002   0.00000   0.00000   0.00002
  53        5D+2        0.00079   0.00005  -0.00038   0.00003  -0.00020
  54        5D-2        0.00009   0.00126   0.00069   0.00063   0.00034
  55 4   C  1S          0.22960  -0.16153  -0.28214  -0.16402  -0.28199
  56        2S          0.18889  -0.13278  -0.23192  -0.13480  -0.23176
  57        2PX        -0.00016   0.00055  -0.00026  -0.00043   0.00010
  58        2PY         0.00025   0.00030  -0.00026  -0.00014   0.00031
  59        2PZ         0.00000   0.00001   0.00000  -0.00001   0.00000
  60        3S          0.00512  -0.00404  -0.00706  -0.00393  -0.00676
  61        3PX         0.00090  -0.00205   0.00096   0.00105  -0.00032
  62        3PY        -0.00137  -0.00112   0.00099   0.00042  -0.00068
  63        3PZ         0.00000  -0.00003   0.00002   0.00001  -0.00001
  64        4S         -0.00110   0.00049   0.00097   0.00206   0.00355
  65        4PX        -0.00006  -0.00045  -0.00073  -0.00122  -0.00168
  66        4PY         0.00009   0.00061   0.00117   0.00147   0.00282
  67        4PZ         0.00000   0.00000   0.00000   0.00000   0.00000
  68        5D 0       -0.00027   0.00030   0.00052   0.00054   0.00094
  69        5D+1        0.00000   0.00000  -0.00001  -0.00002  -0.00002
  70        5D-1        0.00000  -0.00002   0.00000   0.00000  -0.00002
  71        5D+2       -0.00033   0.00121  -0.00053  -0.00061   0.00026
  72        5D-2       -0.00072  -0.00035   0.00057   0.00017  -0.00030
  73 5   C  1S          0.23167  -0.32655  -0.00026   0.32473  -0.00012
  74        2S          0.19059  -0.26842  -0.00021   0.26689  -0.00010
  75        2PX         0.00013  -0.00004  -0.00064  -0.00011  -0.00045
  76        2PY         0.00026  -0.00008   0.00033  -0.00021   0.00023
  77        2PZ         0.00000   0.00000   0.00000   0.00000   0.00000
  78        3S          0.00517  -0.00817  -0.00001   0.00779   0.00000
  79        3PX        -0.00074   0.00016   0.00240   0.00021   0.00114
  80        3PY        -0.00146   0.00031  -0.00122   0.00041  -0.00058
  81        3PZ        -0.00002   0.00000   0.00002   0.00001   0.00001
  82        4S         -0.00113   0.00118   0.00000  -0.00409   0.00000
  83        4PX         0.00004   0.00074   0.00005  -0.00172  -0.00023
  84        4PY         0.00008   0.00145  -0.00002  -0.00338   0.00012
  85        4PZ         0.00000   0.00002   0.00000  -0.00004   0.00000
  86        5D 0       -0.00028   0.00060   0.00000  -0.00108   0.00000
  87        5D+1        0.00000  -0.00001   0.00002   0.00002   0.00001
  88        5D-1        0.00001  -0.00001   0.00000   0.00001   0.00000
  89        5D+2       -0.00047   0.00021   0.00116   0.00011   0.00059
  90        5D-2        0.00064  -0.00028   0.00085  -0.00016   0.00043
  91 6   C  1S          0.22951  -0.16205   0.28189  -0.16375   0.28210
  92        2S          0.18881  -0.13320   0.23172  -0.13459   0.23185
  93        2PX         0.00030  -0.00008   0.00006   0.00014  -0.00019
  94        2PY         0.00001   0.00062   0.00037  -0.00043  -0.00026
  95        2PZ         0.00000   0.00000   0.00000   0.00000   0.00000
  96        3S          0.00512  -0.00405   0.00705  -0.00393   0.00677
  97        3PX        -0.00164   0.00030  -0.00023  -0.00028   0.00036
  98        3PY        -0.00008  -0.00232  -0.00136   0.00109   0.00066
  99        3PZ        -0.00002  -0.00001  -0.00001   0.00001   0.00001
 100        4S         -0.00111   0.00050  -0.00097   0.00205  -0.00354
 101        4PX         0.00011   0.00076  -0.00137   0.00190  -0.00327
 102        4PY         0.00001  -0.00001  -0.00010  -0.00012  -0.00030
 103        4PZ         0.00000   0.00001  -0.00002   0.00002  -0.00004
 104        5D 0       -0.00027   0.00030  -0.00052   0.00054  -0.00094
 105        5D+1        0.00001  -0.00002   0.00001  -0.00001   0.00002
 106        5D-1        0.00000  -0.00002   0.00000   0.00000   0.00002
 107        5D+2        0.00079  -0.00004   0.00038   0.00003  -0.00020
 108        5D-2        0.00009  -0.00126  -0.00069   0.00063   0.00034
 109 7   H  1S         -0.00014   0.00009   0.00015  -0.00015  -0.00026
 110        2S         -0.00209  -0.00138  -0.00241   0.00130   0.00223
 111        3S          0.00095   0.00018   0.00030   0.00016   0.00029
 112        4PX        -0.00073  -0.00043  -0.00061   0.00025   0.00052
 113        4PY         0.00112   0.00053   0.00102  -0.00047  -0.00075
 114        4PZ         0.00000   0.00000   0.00000   0.00000   0.00000
 115 8   H  1S         -0.00014   0.00018   0.00000   0.00030   0.00000
 116        2S         -0.00210  -0.00280   0.00000  -0.00256   0.00000
 117        3S          0.00094   0.00034   0.00000  -0.00034   0.00000
 118        4PX         0.00061   0.00062   0.00008   0.00047  -0.00005
 119        4PY         0.00119   0.00122  -0.00004   0.00093   0.00002
 120        4PZ         0.00002   0.00002   0.00000   0.00001   0.00000
 121 9   H  1S         -0.00014   0.00009  -0.00015  -0.00015   0.00026
 122        2S         -0.00209  -0.00138   0.00241   0.00129  -0.00223
 123        3S          0.00095   0.00018  -0.00030   0.00016  -0.00029
 124        4PX         0.00133   0.00068  -0.00118  -0.00053   0.00091
 125        4PY         0.00007  -0.00004  -0.00010  -0.00008   0.00002
 126        4PZ         0.00001   0.00001  -0.00001  -0.00001   0.00001
 127 10  H  1S         -0.00014  -0.00009  -0.00015  -0.00015  -0.00026
 128        2S         -0.00209   0.00138   0.00241   0.00130   0.00223
 129        3S          0.00095  -0.00018  -0.00030   0.00016   0.00029
 130        4PX         0.00073  -0.00043  -0.00061  -0.00025  -0.00052
 131        4PY        -0.00112   0.00053   0.00102   0.00047   0.00075
 132        4PZ         0.00000   0.00000   0.00000   0.00000   0.00000
 133 11  H  1S         -0.00014  -0.00018   0.00000   0.00030   0.00000
 134        2S         -0.00210   0.00279   0.00000  -0.00256   0.00000
 135        3S          0.00094  -0.00034   0.00000  -0.00034   0.00000
 136        4PX        -0.00061   0.00062   0.00008  -0.00047   0.00005
 137        4PY        -0.00119   0.00122  -0.00004  -0.00093  -0.00002
 138        4PZ        -0.00002   0.00002   0.00000  -0.00001   0.00000
 139 12  H  1S         -0.00014  -0.00009   0.00015  -0.00015   0.00026
 140        2S         -0.00209   0.00138  -0.00241   0.00129  -0.00223
 141        3S          0.00095  -0.00018   0.00030   0.00016  -0.00029
 142        4PX        -0.00133   0.00068  -0.00118   0.00053  -0.00091
 143        4PY        -0.00007  -0.00004  -0.00010   0.00008  -0.00002
 144        4PZ        -0.00001   0.00001  -0.00001   0.00001  -0.00001
                           6         7         8         9        10
                           O         O         O         O         O
     Eigenvalues --   -10.53686  -0.96339  -0.84966  -0.84964  -0.69605
   1 1   C  1S          0.23108  -0.05042  -0.01075  -0.06924   0.04244
   2        2S          0.18989  -0.08043  -0.01724  -0.11105   0.06889
   3        2PX        -0.00011   0.01423   0.04181  -0.00246  -0.03379
   4        2PY         0.00018  -0.02189   0.02583  -0.01020  -0.05306
   5        2PZ         0.00000  -0.00001   0.00064  -0.00010  -0.00076
   6        3S          0.00588   0.20488   0.04434   0.28564  -0.18058
   7        3PX         0.00007   0.02139   0.06150  -0.00261  -0.04905
   8        3PY        -0.00013  -0.03291   0.03766  -0.01651  -0.07463
   9        3PZ         0.00000  -0.00002   0.00094  -0.00015  -0.00109
  10        4S         -0.01565   0.09142   0.02363   0.15164  -0.13090
  11        4PX        -0.00540   0.00447   0.02021   0.00057  -0.02044
  12        4PY         0.00830  -0.00687   0.01184  -0.00753  -0.02406
  13        4PZ         0.00000   0.00000   0.00031  -0.00005  -0.00040
  14        5D 0       -0.00087  -0.00843  -0.00131  -0.00841   0.00391
  15        5D+1        0.00002   0.00016   0.00010   0.00020  -0.00012
  16        5D-1        0.00001   0.00011  -0.00009   0.00016  -0.00001
  17        5D+2        0.00006   0.00025   0.00973   0.00037  -0.00473
  18        5D-2        0.00015   0.00056  -0.00356   0.00478   0.00091
  19 2   C  1S         -0.22905  -0.05043  -0.06534  -0.02531   0.00961
  20        2S         -0.18822  -0.08043  -0.10479  -0.04060   0.01559
  21        2PX        -0.00009  -0.01184   0.01292  -0.04251   0.07551
  22        2PY        -0.00019  -0.02327  -0.01422   0.01869  -0.04508
  23        2PZ         0.00000  -0.00030   0.00003  -0.00032   0.00047
  24        3S         -0.00583   0.20489   0.26954   0.10442  -0.04086
  25        3PX         0.00007  -0.01781   0.01817  -0.06270   0.10806
  26        3PY         0.00013  -0.03499  -0.02242   0.02683  -0.06413
  27        3PZ         0.00000  -0.00045   0.00003  -0.00047   0.00068
  28        4S          0.01565   0.09146   0.14302   0.05544  -0.02962
  29        4PX        -0.00449  -0.00373   0.00481  -0.02078   0.04043
  30        4PY        -0.00882  -0.00732  -0.00942   0.00786  -0.02288
  31        4PZ        -0.00011  -0.00010  -0.00002  -0.00017   0.00026
  32        5D 0        0.00086  -0.00844  -0.00794  -0.00307   0.00088
  33        5D+1       -0.00002   0.00016   0.00010   0.00019  -0.00011
  34        5D-1       -0.00001   0.00010   0.00005   0.00002  -0.00001
  35        5D+2       -0.00010   0.00036  -0.00054   0.00886  -0.00596
  36        5D-2        0.00013  -0.00050  -0.00567   0.00440  -0.00404
  37 3   C  1S          0.23099  -0.05043  -0.05459   0.04393  -0.05205
  38        2S          0.18981  -0.08043  -0.08755   0.07045  -0.08447
  39        2PX         0.00021  -0.02607  -0.00732   0.00252   0.03035
  40        2PY         0.00001  -0.00137   0.03084   0.03892   0.03214
  41        2PZ         0.00000  -0.00029   0.00015   0.00032   0.00057
  42        3S          0.00588   0.20489   0.22519  -0.18122   0.22143
  43        3PX        -0.00014  -0.03921  -0.01219   0.00487   0.04164
  44        3PY        -0.00002  -0.00206   0.04517   0.05719   0.04582
  45        3PZ         0.00000  -0.00044   0.00021   0.00048   0.00079
  46        4S         -0.01565   0.09146   0.11964  -0.09621   0.16051
  47        4PX         0.00989  -0.00821  -0.00607   0.00323   0.01022
  48        4PY         0.00052  -0.00043   0.01455   0.01864   0.01667
  49        4PZ         0.00011  -0.00009   0.00004   0.00018   0.00023
  50        5D 0       -0.00087  -0.00844  -0.00664   0.00534  -0.00480
  51        5D+1        0.00001   0.00015   0.00004  -0.00012   0.00006
  52        5D-1        0.00001   0.00011   0.00003  -0.00018   0.00004
  53        5D+2       -0.00016  -0.00061  -0.00286   0.00371  -0.00106
  54        5D-2       -0.00001  -0.00007  -0.00689  -0.00780  -0.00263
  55 4   C  1S         -0.23092  -0.05042   0.01075   0.06924   0.04244
  56        2S         -0.18976  -0.08043   0.01724   0.11105   0.06889
  57        2PX        -0.00011  -0.01423   0.04181  -0.00246   0.03379
  58        2PY         0.00018   0.02189   0.02583  -0.01020   0.05306
  59        2PZ         0.00000   0.00001   0.00064  -0.00010   0.00076
  60        3S         -0.00588   0.20488  -0.04434  -0.28564  -0.18058
  61        3PX         0.00007  -0.02139   0.06150  -0.00261   0.04905
  62        3PY        -0.00013   0.03291   0.03766  -0.01651   0.07463
  63        3PZ         0.00000   0.00002   0.00094  -0.00015   0.00109
  64        4S          0.01565   0.09142  -0.02363  -0.15164  -0.13090
  65        4PX        -0.00539  -0.00447   0.02021   0.00057   0.02044
  66        4PY         0.00830   0.00687   0.01184  -0.00753   0.02406
  67        4PZ         0.00000   0.00000   0.00031  -0.00005   0.00040
  68        5D 0        0.00087  -0.00843   0.00131   0.00841   0.00391
  69        5D+1       -0.00002   0.00016  -0.00010  -0.00020  -0.00012
  70        5D-1       -0.00001   0.00011   0.00009  -0.00016  -0.00001
  71        5D+2       -0.00006   0.00025  -0.00973  -0.00037  -0.00473
  72        5D-2       -0.00015   0.00056   0.00356  -0.00478   0.00091
  73 5   C  1S          0.22891  -0.05043   0.06534   0.02531   0.00961
  74        2S          0.18810  -0.08043   0.10479   0.04060   0.01559
  75        2PX        -0.00009   0.01184   0.01292  -0.04251  -0.07551
  76        2PY        -0.00019   0.02327  -0.01422   0.01869   0.04507
  77        2PZ         0.00000   0.00030   0.00003  -0.00032  -0.00047
  78        3S          0.00583   0.20489  -0.26954  -0.10442  -0.04086
  79        3PX         0.00007   0.01781   0.01817  -0.06270  -0.10806
  80        3PY         0.00013   0.03499  -0.02242   0.02683   0.06413
  81        3PZ         0.00000   0.00045   0.00003  -0.00047  -0.00068
  82        4S         -0.01564   0.09146  -0.14302  -0.05544  -0.02962
  83        4PX        -0.00449   0.00373   0.00481  -0.02078  -0.04043
  84        4PY        -0.00881   0.00732  -0.00942   0.00786   0.02288
  85        4PZ        -0.00011   0.00010  -0.00002  -0.00017  -0.00026
  86        5D 0       -0.00086  -0.00844   0.00794   0.00307   0.00088
  87        5D+1        0.00002   0.00016  -0.00010  -0.00019  -0.00011
  88        5D-1        0.00001   0.00010  -0.00005  -0.00002  -0.00001
  89        5D+2        0.00010   0.00036   0.00054  -0.00886  -0.00596
  90        5D-2       -0.00013  -0.00050   0.00567  -0.00440  -0.00404
  91 6   C  1S         -0.23101  -0.05043   0.05459  -0.04393  -0.05205
  92        2S         -0.18983  -0.08043   0.08755  -0.07045  -0.08447
  93        2PX         0.00021   0.02607  -0.00732   0.00252  -0.03035
  94        2PY         0.00001   0.00137   0.03084   0.03892  -0.03214
  95        2PZ         0.00000   0.00029   0.00015   0.00032  -0.00057
  96        3S         -0.00588   0.20489  -0.22519   0.18122   0.22143
  97        3PX        -0.00014   0.03921  -0.01219   0.00487  -0.04164
  98        3PY        -0.00002   0.00206   0.04517   0.05719  -0.04582
  99        3PZ         0.00000   0.00044   0.00021   0.00048  -0.00079
 100        4S          0.01565   0.09146  -0.11964   0.09621   0.16051
 101        4PX         0.00989   0.00821  -0.00607   0.00323  -0.01022
 102        4PY         0.00052   0.00043   0.01455   0.01864  -0.01667
 103        4PZ         0.00011   0.00009   0.00004   0.00018  -0.00023
 104        5D 0        0.00087  -0.00844   0.00664  -0.00534  -0.00480
 105        5D+1       -0.00001   0.00015  -0.00004   0.00012   0.00006
 106        5D-1       -0.00001   0.00011  -0.00003   0.00018   0.00004
 107        5D+2        0.00016  -0.00061   0.00286  -0.00371  -0.00106
 108        5D-2        0.00001  -0.00007   0.00689   0.00780  -0.00263
 109 7   H  1S          0.00030   0.02400   0.00831   0.05353  -0.05975
 110        2S         -0.00271   0.02608   0.00948   0.06102  -0.07329
 111        3S         -0.00160  -0.00325   0.00006   0.00030  -0.00941
 112        4PX        -0.00041   0.00265   0.00280   0.00529  -0.00753
 113        4PY         0.00062  -0.00409  -0.00008  -0.00880   0.00679
 114        4PZ         0.00000   0.00000   0.00003  -0.00001  -0.00003
 115 8   H  1S         -0.00030   0.02399   0.05051   0.01957  -0.01352
 116        2S          0.00269   0.02609   0.05757   0.02231  -0.01659
 117        3S          0.00160  -0.00324   0.00028   0.00011  -0.00213
 118        4PX        -0.00033  -0.00221  -0.00364  -0.00364   0.00457
 119        4PY        -0.00066  -0.00434  -0.00901  -0.00235   0.00016
 120        4PZ        -0.00001  -0.00006  -0.00011  -0.00006   0.00005
 121 9   H  1S          0.00030   0.02400   0.04221  -0.03396   0.07328
 122        2S         -0.00271   0.02610   0.04814  -0.03873   0.08992
 123        3S         -0.00160  -0.00324   0.00025  -0.00019   0.01155
 124        4PX         0.00074  -0.00487  -0.00816   0.00641  -0.01208
 125        4PY         0.00004  -0.00026   0.00104   0.00216   0.00076
 126        4PZ         0.00001  -0.00005  -0.00008   0.00008  -0.00012
 127 10  H  1S         -0.00030   0.02400  -0.00831  -0.05353  -0.05975
 128        2S          0.00271   0.02608  -0.00948  -0.06102  -0.07329
 129        3S          0.00160  -0.00325  -0.00006  -0.00030  -0.00941
 130        4PX        -0.00041  -0.00265   0.00280   0.00529   0.00753
 131        4PY         0.00062   0.00409  -0.00008  -0.00880  -0.00679
 132        4PZ         0.00000   0.00000   0.00003  -0.00001   0.00003
 133 11  H  1S          0.00030   0.02399  -0.05051  -0.01957  -0.01352
 134        2S         -0.00269   0.02609  -0.05757  -0.02231  -0.01659
 135        3S         -0.00160  -0.00324  -0.00028  -0.00011  -0.00213
 136        4PX        -0.00033   0.00221  -0.00364  -0.00364  -0.00457
 137        4PY        -0.00066   0.00434  -0.00901  -0.00235  -0.00016
 138        4PZ        -0.00001   0.00006  -0.00011  -0.00006  -0.00005
 139 12  H  1S         -0.00030   0.02400  -0.04221   0.03396   0.07328
 140        2S          0.00271   0.02610  -0.04814   0.03873   0.08992
 141        3S          0.00160  -0.00324  -0.00025   0.00019   0.01155
 142        4PX         0.00074   0.00487  -0.00816   0.00641   0.01208
 143        4PY         0.00004   0.00026   0.00104   0.00216  -0.00076
 144        4PZ         0.00001   0.00005  -0.00008   0.00008   0.00012
                          11        12        13        14        15
                           O         O         O         O         O
     Eigenvalues --    -0.69604  -0.61386  -0.55135  -0.51429  -0.49751
   1 1   C  1S          0.03560  -0.00449  -0.03223   0.00000   0.00265
   2        2S          0.05778  -0.00699  -0.05262   0.00001   0.00435
   3        2PX         0.06916  -0.04986  -0.03346  -0.10604  -0.04809
   4        2PY         0.01884   0.07674   0.05148  -0.06885   0.00205
   5        2PZ         0.00088   0.00004   0.00003  -0.00165  -0.00050
   6        3S         -0.15145   0.01649   0.13870  -0.00001  -0.01257
   7        3PX         0.09818  -0.07039  -0.04703  -0.15422  -0.07316
   8        3PY         0.02793   0.10834   0.07236  -0.10014  -0.00042
   9        3PZ         0.00126   0.00006   0.00004  -0.00241  -0.00079
  10        4S         -0.10974   0.03567   0.15685  -0.00001  -0.01054
  11        4PX         0.03440  -0.03643  -0.02176  -0.07820  -0.01818
  12        4PY         0.01326   0.05606   0.03352  -0.05076   0.01763
  13        4PZ         0.00047   0.00003   0.00002  -0.00122  -0.00006
  14        5D 0        0.00328   0.00192  -0.00144   0.00000   0.00008
  15        5D+1       -0.00003   0.00004  -0.00017  -0.00003  -0.00014
  16        5D-1       -0.00011   0.00002  -0.00010   0.00006   0.00021
  17        5D+2        0.00474   0.00260  -0.00703  -0.00458  -0.01818
  18        5D-2       -0.00311   0.00586  -0.01584   0.00203   0.00738
  19 2   C  1S         -0.05455  -0.00449   0.03222   0.00000   0.01261
  20        2S         -0.08854  -0.00699   0.05262   0.00000   0.02072
  21        2PX         0.02899   0.04151  -0.02788   0.11269   0.04905
  22        2PY         0.02287   0.08157  -0.05474  -0.05741   0.12424
  23        2PZ         0.00048   0.00106  -0.00071   0.00078   0.00146
  24        3S          0.23210   0.01649  -0.13869   0.00001  -0.05984
  25        3PX         0.04058   0.05861  -0.03917   0.16390   0.06763
  26        3PY         0.03106   0.11515  -0.07693  -0.08349   0.17664
  27        3PZ         0.00067   0.00149  -0.00100   0.00114   0.00205
  28        4S          0.16818   0.03559  -0.15684  -0.00002  -0.05059
  29        4PX         0.01257   0.03037  -0.01813   0.08315   0.05191
  30        4PY         0.00673   0.05965  -0.03567  -0.04236   0.10589
  31        4PZ         0.00019   0.00077  -0.00046   0.00058   0.00135
  32        5D 0       -0.00503   0.00192   0.00143   0.00000   0.00037
  33        5D+1        0.00008  -0.00003  -0.00002  -0.00007   0.00008
  34        5D-1        0.00005  -0.00011  -0.00025   0.00000   0.00004
  35        5D+2       -0.00020   0.00377   0.01020  -0.00406   0.00333
  36        5D-2       -0.00187  -0.00518  -0.01403  -0.00295   0.00624
  37 3   C  1S          0.01896  -0.00448  -0.03222   0.00000   0.00997
  38        2S          0.03077  -0.00698  -0.05261   0.00000   0.01637
  39        2PX        -0.01605   0.09138   0.06136  -0.00673   0.10628
  40        2PY         0.08298   0.00480   0.00324   0.12627  -0.02089
  41        2PZ         0.00045   0.00102   0.00068   0.00087   0.00099
  42        3S         -0.08067   0.01646   0.13866   0.00001  -0.04728
  43        3PX        -0.02231   0.12903   0.08625  -0.00978   0.15057
  44        3PY         0.11862   0.00679   0.00454   0.18365  -0.03366
  45        3PZ         0.00065   0.00144   0.00096   0.00127   0.00136
  46        4S         -0.05844   0.03558   0.15678  -0.00003  -0.03986
  47        4PX        -0.00641   0.06678   0.03993  -0.00499   0.09311
  48        4PY         0.04400   0.00352   0.00211   0.09315   0.00113
  49        4PZ         0.00026   0.00075   0.00045   0.00065   0.00101
  50        5D 0        0.00174   0.00192  -0.00143   0.00000   0.00030
  51        5D+1       -0.00007  -0.00011   0.00023  -0.00003   0.00011
  52        5D-1       -0.00010   0.00002  -0.00009  -0.00006   0.00013
  53        5D+2        0.00120  -0.00637   0.01725   0.00052   0.00103
  54        5D-2       -0.00678  -0.00067   0.00182  -0.00499   0.01344
  55 4   C  1S          0.03560  -0.00449   0.03223   0.00000  -0.00265
  56        2S          0.05778  -0.00699   0.05262  -0.00001  -0.00435
  57        2PX        -0.06916   0.04986  -0.03346  -0.10604  -0.04809
  58        2PY        -0.01884  -0.07674   0.05148  -0.06885   0.00205
  59        2PZ        -0.00088  -0.00004   0.00003  -0.00165  -0.00050
  60        3S         -0.15145   0.01649  -0.13870   0.00001   0.01257
  61        3PX        -0.09818   0.07039  -0.04703  -0.15422  -0.07316
  62        3PY        -0.02793  -0.10834   0.07236  -0.10014  -0.00042
  63        3PZ        -0.00127  -0.00006   0.00004  -0.00241  -0.00079
  64        4S         -0.10974   0.03567  -0.15685   0.00001   0.01054
  65        4PX        -0.03440   0.03643  -0.02176  -0.07820  -0.01818
  66        4PY        -0.01326  -0.05606   0.03352  -0.05076   0.01763
  67        4PZ        -0.00047  -0.00003   0.00002  -0.00122  -0.00006
  68        5D 0        0.00328   0.00192   0.00144   0.00000  -0.00008
  69        5D+1       -0.00003   0.00004   0.00017   0.00003   0.00014
  70        5D-1       -0.00011   0.00002   0.00010  -0.00006  -0.00021
  71        5D+2        0.00474   0.00260   0.00703   0.00458   0.01818
  72        5D-2       -0.00311   0.00586   0.01584  -0.00203  -0.00738
  73 5   C  1S         -0.05455  -0.00449  -0.03222   0.00000  -0.01261
  74        2S         -0.08854  -0.00699  -0.05262   0.00000  -0.02072
  75        2PX        -0.02899  -0.04151  -0.02788   0.11270   0.04905
  76        2PY        -0.02287  -0.08157  -0.05474  -0.05741   0.12424
  77        2PZ        -0.00048  -0.00106  -0.00071   0.00078   0.00146
  78        3S          0.23210   0.01649   0.13869  -0.00001   0.05984
  79        3PX        -0.04058  -0.05861  -0.03917   0.16390   0.06763
  80        3PY        -0.03106  -0.11516  -0.07693  -0.08349   0.17664
  81        3PZ        -0.00067  -0.00149  -0.00100   0.00114   0.00205
  82        4S          0.16818   0.03559   0.15684   0.00002   0.05059
  83        4PX        -0.01257  -0.03037  -0.01813   0.08315   0.05191
  84        4PY        -0.00673  -0.05965  -0.03567  -0.04236   0.10589
  85        4PZ        -0.00019  -0.00077  -0.00046   0.00058   0.00135
  86        5D 0       -0.00503   0.00192  -0.00143   0.00000  -0.00037
  87        5D+1        0.00008  -0.00003   0.00002   0.00007  -0.00008
  88        5D-1        0.00005  -0.00011   0.00025   0.00000  -0.00004
  89        5D+2       -0.00020   0.00377  -0.01020   0.00406  -0.00333
  90        5D-2       -0.00187  -0.00518   0.01403   0.00295  -0.00624
  91 6   C  1S          0.01896  -0.00448   0.03222   0.00000  -0.00997
  92        2S          0.03077  -0.00698   0.05261   0.00001  -0.01637
  93        2PX         0.01605  -0.09138   0.06136  -0.00673   0.10628
  94        2PY        -0.08298  -0.00480   0.00324   0.12627  -0.02089
  95        2PZ        -0.00045  -0.00102   0.00068   0.00087   0.00099
  96        3S         -0.08067   0.01646  -0.13866  -0.00001   0.04728
  97        3PX         0.02231  -0.12903   0.08625  -0.00978   0.15057
  98        3PY        -0.11862  -0.00679   0.00454   0.18365  -0.03366
  99        3PZ        -0.00065  -0.00144   0.00096   0.00127   0.00136
 100        4S         -0.05844   0.03558  -0.15678   0.00003   0.03986
 101        4PX         0.00641  -0.06678   0.03993  -0.00499   0.09311
 102        4PY        -0.04400  -0.00352   0.00211   0.09315   0.00113
 103        4PZ        -0.00026  -0.00075   0.00045   0.00065   0.00101
 104        5D 0        0.00174   0.00192   0.00143   0.00000  -0.00030
 105        5D+1       -0.00007  -0.00011  -0.00023   0.00003  -0.00011
 106        5D-1       -0.00010   0.00002   0.00009   0.00006  -0.00013
 107        5D+2        0.00120  -0.00637  -0.01725  -0.00052  -0.00102
 108        5D-2       -0.00678  -0.00067  -0.00182   0.00499  -0.01344
 109 7   H  1S         -0.05013   0.07178   0.08777   0.00004   0.02062
 110        2S         -0.06147   0.08495   0.11236   0.00005   0.02782
 111        3S         -0.00789   0.01604   0.03558   0.00001   0.00940
 112        4PX        -0.00187   0.00553   0.00489  -0.00517  -0.00147
 113        4PY         0.00859  -0.00851  -0.00752  -0.00337  -0.00375
 114        4PZ         0.00004   0.00000   0.00000  -0.00008  -0.00004
 115 8   H  1S          0.07682   0.07180  -0.08780  -0.00001   0.09818
 116        2S          0.09419   0.08495  -0.11236  -0.00003   0.13239
 117        3S          0.01209   0.01603  -0.03559   0.00000   0.04471
 118        4PX        -0.00508  -0.00461   0.00406   0.00550  -0.00600
 119        4PY        -0.01154  -0.00905   0.00799  -0.00280  -0.00946
 120        4PZ        -0.00014  -0.00012   0.00010   0.00004  -0.00013
 121 9   H  1S         -0.02670   0.07177   0.08779  -0.00005   0.07753
 122        2S         -0.03275   0.08497   0.11243  -0.00006   0.10463
 123        3S         -0.00419   0.01603   0.03560  -0.00001   0.03532
 124        4PX         0.00417  -0.01014  -0.00896  -0.00032  -0.00869
 125        4PY         0.00404  -0.00053  -0.00047   0.00616  -0.00267
 126        4PZ         0.00007  -0.00011  -0.00010   0.00004  -0.00011
 127 10  H  1S         -0.05013   0.07178  -0.08777  -0.00004  -0.02062
 128        2S         -0.06147   0.08495  -0.11235  -0.00005  -0.02782
 129        3S         -0.00789   0.01604  -0.03558  -0.00001  -0.00940
 130        4PX         0.00187  -0.00553   0.00489  -0.00517  -0.00147
 131        4PY        -0.00859   0.00851  -0.00752  -0.00337  -0.00375
 132        4PZ        -0.00004   0.00000   0.00000  -0.00008  -0.00004
 133 11  H  1S          0.07682   0.07180   0.08779   0.00001  -0.09818
 134        2S          0.09419   0.08495   0.11236   0.00003  -0.13239
 135        3S          0.01209   0.01603   0.03559   0.00000  -0.04471
 136        4PX         0.00508   0.00461   0.00406   0.00550  -0.00600
 137        4PY         0.01154   0.00905   0.00799  -0.00280  -0.00946
 138        4PZ         0.00014   0.00012   0.00010   0.00004  -0.00013
 139 12  H  1S         -0.02670   0.07177  -0.08779   0.00005  -0.07753
 140        2S         -0.03275   0.08497  -0.11243   0.00006  -0.10463
 141        3S         -0.00419   0.01603  -0.03560   0.00001  -0.03532
 142        4PX        -0.00417   0.01014  -0.00896  -0.00032  -0.00869
 143        4PY        -0.00404   0.00053  -0.00047   0.00616  -0.00267
 144        4PZ        -0.00007   0.00011  -0.00010   0.00004  -0.00011
                          16        17        18        19        20
                           O         O         O         O         O
     Eigenvalues --    -0.49748  -0.44279  -0.40930  -0.40929  -0.31129
   1 1   C  1S          0.01303   0.00000   0.00252   0.00220   0.00000
   2        2S          0.02141   0.00000   0.00426   0.00373   0.00000
   3        2PX        -0.06816  -0.00105  -0.11182   0.04135  -0.00119
   4        2PY         0.11961  -0.00073   0.02130   0.10896  -0.00083
   5        2PZ         0.00016   0.09731  -0.00104   0.00126   0.11042
   6        3S         -0.06183   0.00000  -0.01430  -0.01250   0.00000
   7        3PX        -0.09539  -0.00167  -0.15882   0.05868  -0.00188
   8        3PY         0.16988  -0.00116   0.03031   0.15478  -0.00131
   9        3PZ         0.00025   0.15509  -0.00148   0.00179   0.17495
  10        4S         -0.05220   0.00001   0.00113   0.00103   0.00002
  11        4PX        -0.06538  -0.00125  -0.11294   0.02755  -0.00188
  12        4PY         0.10277  -0.00087   0.03693   0.11430  -0.00132
  13        4PZ         0.00007   0.11590  -0.00094   0.00115   0.17497
  14        5D 0        0.00038  -0.00001   0.00033   0.00028   0.00036
  15        5D+1       -0.00002   0.00671  -0.00031  -0.00014   0.01673
  16        5D-1       -0.00007  -0.01031  -0.00004  -0.00025   0.00367
  17        5D+2        0.00236  -0.00015  -0.01750   0.00265  -0.00015
  18        5D-2       -0.00453   0.00006  -0.01545  -0.02147  -0.00016
  19 2   C  1S          0.00423   0.00000   0.00065  -0.00328   0.00000
  20        2S          0.00695   0.00000   0.00110  -0.00556   0.00000
  21        2PX         0.05393  -0.00105   0.11836  -0.02507  -0.00152
  22        2PY         0.02249  -0.00073  -0.03759  -0.10241  -0.00106
  23        2PZ         0.00075   0.09730   0.00099  -0.00104   0.14093
  24        3S         -0.02007   0.00000  -0.00368   0.01864   0.00000
  25        3PX         0.08156  -0.00167   0.16807  -0.03563  -0.00240
  26        3PY         0.02913  -0.00117  -0.05335  -0.14549  -0.00168
  27        3PZ         0.00110   0.15509   0.00141  -0.00148   0.22329
  28        4S         -0.01691   0.00000   0.00028  -0.00149   0.00000
  29        4PX         0.02269  -0.00124   0.10992  -0.03516  -0.00240
  30        4PY         0.03268  -0.00087  -0.02936  -0.11735  -0.00168
  31        4PZ         0.00049   0.11589   0.00096  -0.00126   0.22333
  32        5D 0        0.00012  -0.00025   0.00008  -0.00044  -0.00024
  33        5D+1       -0.00025  -0.00558  -0.00019  -0.00002  -0.01016
  34        5D-1        0.00001  -0.01096   0.00007  -0.00036  -0.00348
  35        5D+2       -0.01596  -0.00002  -0.01494   0.01396   0.00008
  36        5D-2       -0.01033   0.00016  -0.00412  -0.02406   0.00011
  37 3   C  1S         -0.00882   0.00000  -0.00317   0.00108   0.00000
  38        2S         -0.01449   0.00000  -0.00536   0.00184   0.00000
  39        2PX        -0.09117  -0.00105  -0.10098   0.02755  -0.00033
  40        2PY        -0.03484  -0.00073   0.03511   0.11979  -0.00023
  41        2PZ        -0.00124   0.09730  -0.00082   0.00119   0.03052
  42        3S          0.04185   0.00000   0.01798  -0.00616   0.00000
  43        3PX        -0.12873  -0.00167  -0.14348   0.03916  -0.00052
  44        3PY        -0.05395  -0.00116   0.04984   0.17009  -0.00036
  45        3PZ        -0.00179   0.15509  -0.00117   0.00169   0.04836
  46        4S          0.03533   0.00000  -0.00142   0.00046  -0.00001
  47        4PX        -0.08195  -0.00124  -0.11798   0.03400  -0.00051
  48        4PY        -0.00866  -0.00087   0.03048   0.10926  -0.00036
  49        4PZ        -0.00095   0.11590  -0.00104   0.00118   0.04836
  50        5D 0       -0.00026  -0.00024  -0.00042   0.00014   0.00025
  51        5D+1        0.00008  -0.01229  -0.00033   0.00001  -0.00291
  52        5D-1        0.00019  -0.00064   0.00012  -0.00022   0.02338
  53        5D+2       -0.00372   0.00013  -0.02604   0.01053   0.00021
  54        5D-2        0.01469   0.00010  -0.00755  -0.01296  -0.00023
  55 4   C  1S         -0.01303   0.00000   0.00252   0.00220   0.00000
  56        2S         -0.02141   0.00000   0.00426   0.00372   0.00000
  57        2PX        -0.06817  -0.00105   0.11182  -0.04135   0.00119
  58        2PY         0.11961  -0.00073  -0.02130  -0.10896   0.00083
  59        2PZ         0.00016   0.09731   0.00104  -0.00126  -0.11042
  60        3S          0.06183   0.00000  -0.01430  -0.01250   0.00000
  61        3PX        -0.09539  -0.00167   0.15882  -0.05868   0.00188
  62        3PY         0.16988  -0.00117  -0.03032  -0.15477   0.00131
  63        3PZ         0.00025   0.15509   0.00148  -0.00179  -0.17495
  64        4S          0.05220  -0.00001   0.00113   0.00103   0.00002
  65        4PX        -0.06538  -0.00125   0.11294  -0.02755   0.00188
  66        4PY         0.10277  -0.00087  -0.03693  -0.11430   0.00131
  67        4PZ         0.00007   0.11590   0.00094  -0.00115  -0.17497
  68        5D 0       -0.00038   0.00001   0.00033   0.00028   0.00036
  69        5D+1        0.00002  -0.00671  -0.00031  -0.00014   0.01673
  70        5D-1        0.00007   0.01031  -0.00004  -0.00025   0.00367
  71        5D+2       -0.00236   0.00015  -0.01750   0.00265  -0.00015
  72        5D-2        0.00453  -0.00006  -0.01545  -0.02147  -0.00016
  73 5   C  1S         -0.00423   0.00000   0.00065  -0.00328   0.00000
  74        2S         -0.00695   0.00000   0.00110  -0.00556   0.00000
  75        2PX         0.05393  -0.00105  -0.11836   0.02507   0.00152
  76        2PY         0.02249  -0.00073   0.03759   0.10241   0.00106
  77        2PZ         0.00075   0.09730  -0.00099   0.00104  -0.14093
  78        3S          0.02007   0.00000  -0.00368   0.01864   0.00000
  79        3PX         0.08156  -0.00167  -0.16807   0.03563   0.00240
  80        3PY         0.02913  -0.00116   0.05335   0.14549   0.00168
  81        3PZ         0.00110   0.15509  -0.00141   0.00147  -0.22329
  82        4S          0.01691   0.00000   0.00028  -0.00149   0.00000
  83        4PX         0.02269  -0.00124  -0.10992   0.03516   0.00240
  84        4PY         0.03268  -0.00086   0.02936   0.11735   0.00168
  85        4PZ         0.00049   0.11589  -0.00096   0.00126  -0.22333
  86        5D 0       -0.00012   0.00025   0.00008  -0.00044  -0.00024
  87        5D+1        0.00025   0.00558  -0.00019  -0.00002  -0.01016
  88        5D-1       -0.00001   0.01096   0.00007  -0.00036  -0.00348
  89        5D+2        0.01596   0.00002  -0.01494   0.01396   0.00008
  90        5D-2        0.01033  -0.00016  -0.00412  -0.02406   0.00011
  91 6   C  1S          0.00882   0.00000  -0.00317   0.00108   0.00000
  92        2S          0.01449   0.00000  -0.00536   0.00184   0.00000
  93        2PX        -0.09117  -0.00105   0.10098  -0.02755   0.00033
  94        2PY        -0.03484  -0.00073  -0.03511  -0.11979   0.00023
  95        2PZ        -0.00124   0.09730   0.00082  -0.00120  -0.03052
  96        3S         -0.04185   0.00000   0.01798  -0.00616   0.00000
  97        3PX        -0.12873  -0.00167   0.14348  -0.03916   0.00052
  98        3PY        -0.05395  -0.00117  -0.04984  -0.17009   0.00036
  99        3PZ        -0.00179   0.15509   0.00117  -0.00170  -0.04836
 100        4S         -0.03533   0.00000  -0.00142   0.00046  -0.00001
 101        4PX        -0.08195  -0.00124   0.11798  -0.03400   0.00050
 102        4PY        -0.00866  -0.00088  -0.03048  -0.10926   0.00036
 103        4PZ        -0.00095   0.11590   0.00104  -0.00119  -0.04836
 104        5D 0        0.00026   0.00024  -0.00042   0.00014   0.00025
 105        5D+1       -0.00008   0.01229  -0.00033   0.00001  -0.00291
 106        5D-1       -0.00019   0.00064   0.00012  -0.00022   0.02338
 107        5D+2        0.00372  -0.00013  -0.02604   0.01053   0.00021
 108        5D-2       -0.01469  -0.00010  -0.00755  -0.01296  -0.00023
 109 7   H  1S          0.10147   0.00000   0.07564   0.06608   0.00000
 110        2S          0.13686   0.00000   0.10497   0.09169   0.00000
 111        3S          0.04622   0.00000   0.05389   0.04707   0.00000
 112        4PX         0.00684  -0.00007  -0.00160   0.00705  -0.00009
 113        4PY        -0.00930  -0.00005  -0.00670  -0.00036  -0.00006
 114        4PZ         0.00000   0.00638  -0.00007   0.00007   0.00820
 115 8   H  1S          0.03286   0.00000   0.01941  -0.09855   0.00000
 116        2S          0.04431   0.00000   0.02692  -0.13672   0.00000
 117        3S          0.01498   0.00000   0.01384  -0.07021   0.00000
 118        4PX         0.00113  -0.00007   0.00608   0.00410  -0.00011
 119        4PY        -0.00476  -0.00005  -0.00446   0.00484  -0.00008
 120        4PZ        -0.00002   0.00639   0.00003   0.00008   0.01047
 121 9   H  1S         -0.06855   0.00000  -0.09502   0.03246   0.00000
 122        2S         -0.09251   0.00000  -0.13192   0.04506   0.00000
 123        3S         -0.03123   0.00000  -0.06770   0.02313  -0.00001
 124        4PX         0.00791  -0.00007   0.00583  -0.00241  -0.00002
 125        4PY        -0.00209  -0.00005   0.00276   0.00706  -0.00002
 126        4PZ         0.00007   0.00638   0.00008   0.00003   0.00227
 127 10  H  1S         -0.10147   0.00000   0.07564   0.06608   0.00000
 128        2S         -0.13686   0.00001   0.10497   0.09169   0.00000
 129        3S         -0.04622   0.00000   0.05389   0.04707   0.00000
 130        4PX         0.00684  -0.00007   0.00160  -0.00705   0.00009
 131        4PY        -0.00930  -0.00005   0.00670   0.00036   0.00006
 132        4PZ         0.00000   0.00638   0.00007  -0.00007  -0.00820
 133 11  H  1S         -0.03286   0.00000   0.01941  -0.09855   0.00000
 134        2S         -0.04431   0.00000   0.02692  -0.13672   0.00000
 135        3S         -0.01498   0.00000   0.01384  -0.07021   0.00000
 136        4PX         0.00113  -0.00007  -0.00608  -0.00410   0.00011
 137        4PY        -0.00476  -0.00005   0.00446  -0.00484   0.00008
 138        4PZ        -0.00002   0.00639  -0.00003  -0.00008  -0.01047
 139 12  H  1S          0.06855   0.00000  -0.09502   0.03246   0.00000
 140        2S          0.09251   0.00000  -0.13192   0.04506   0.00000
 141        3S          0.03123   0.00000  -0.06770   0.02313  -0.00001
 142        4PX         0.00791  -0.00007  -0.00583   0.00241   0.00002
 143        4PY        -0.00209  -0.00005  -0.00276  -0.00706   0.00002
 144        4PZ         0.00007   0.00638  -0.00008  -0.00003  -0.00227
                          21        22        23        24        25
                           O         V         V         V         V
     Eigenvalues --    -0.31129   0.02317   0.02318   0.08894   0.11951
   1 1   C  1S          0.00000   0.00000   0.00000   0.01660   0.00646
   2        2S          0.00000   0.00000   0.00000   0.02595   0.01028
   3        2PX         0.00106   0.00120   0.00123   0.02294   0.01400
   4        2PY         0.00074   0.00083   0.00086  -0.03530  -0.03153
   5        2PZ        -0.09899  -0.11120  -0.11424  -0.00002  -0.00009
   6        3S          0.00000   0.00000   0.00000  -0.04825  -0.01780
   7        3PX         0.00169   0.00174   0.00178   0.01651   0.02005
   8        3PY         0.00118   0.00121   0.00124  -0.02539  -0.00398
   9        3PZ        -0.15684  -0.16158  -0.16598  -0.00001   0.00019
  10        4S          0.00000  -0.00001   0.00000  -0.53944  -0.36101
  11        4PX         0.00170   0.00407   0.00422   0.12979   0.18480
  12        4PY         0.00117   0.00284   0.00292  -0.19954  -0.16772
  13        4PZ        -0.15684  -0.38009  -0.39045  -0.00010   0.00073
  14        5D 0        0.00041  -0.00058   0.00055  -0.00309  -0.00083
  15        5D+1        0.01204  -0.01675   0.02533  -0.00017   0.00002
  16        5D-1        0.01428  -0.02076   0.00631  -0.00010  -0.00021
  17        5D+2       -0.00002   0.00002  -0.00022  -0.00827   0.01023
  18        5D-2       -0.00024   0.00035  -0.00026  -0.01862  -0.01353
  19 2   C  1S          0.00000   0.00000   0.00000   0.01661   0.01524
  20        2S          0.00000   0.00000   0.00000   0.02597   0.02424
  21        2PX        -0.00050   0.00047  -0.00165  -0.01911  -0.03689
  22        2PY        -0.00035   0.00033  -0.00115  -0.03754  -0.07131
  23        2PZ         0.04613  -0.04333   0.15342  -0.00049  -0.00093
  24        3S          0.00000   0.00000   0.00000  -0.04827  -0.04197
  25        3PX        -0.00078   0.00068  -0.00240  -0.01375  -0.01401
  26        3PY        -0.00055   0.00047  -0.00167  -0.02700  -0.03059
  27        3PZ         0.07309  -0.06295   0.22291  -0.00035  -0.00038
  28        4S          0.00000   0.00002  -0.00003  -0.54004  -0.85106
  29        4PX        -0.00079   0.00159  -0.00564  -0.10802  -0.25256
  30        4PY        -0.00056   0.00112  -0.00392  -0.21231  -0.50963
  31        4PZ         0.07308  -0.14811   0.52440  -0.00276  -0.00654
  32        5D 0        0.00019   0.00030   0.00033  -0.00308  -0.00194
  33        5D+1        0.01919   0.02889   0.01375   0.00005   0.00001
  34        5D-1       -0.01261  -0.01833   0.00582   0.00031   0.00028
  35        5D+2       -0.00030  -0.00045  -0.00010  -0.01199  -0.01252
  36        5D-2       -0.00001  -0.00002  -0.00017   0.01648   0.01479
  37 3   C  1S          0.00000   0.00000   0.00000   0.01660   0.00877
  38        2S          0.00000   0.00000   0.00000   0.02596   0.01395
  39        2PX        -0.00156  -0.00166   0.00042  -0.04204  -0.04588
  40        2PY        -0.00109  -0.00116   0.00030  -0.00221  -0.00734
  41        2PZ         0.14512   0.15453  -0.03919  -0.00047  -0.00055
  42        3S          0.00001   0.00000   0.00000  -0.04825  -0.02414
  43        3PX        -0.00247  -0.00242   0.00061  -0.03025  -0.02002
  44        3PY        -0.00173  -0.00168   0.00043  -0.00159   0.01219
  45        3PZ         0.22992   0.22451  -0.05693  -0.00034  -0.00012
  46        4S         -0.00001   0.00002   0.00001  -0.53957  -0.48968
  47        4PX        -0.00245  -0.00566   0.00143  -0.23767  -0.32979
  48        4PY        -0.00173  -0.00396   0.00102  -0.01250   0.04016
  49        4PZ         0.22998   0.52822  -0.13395  -0.00264  -0.00324
  50        5D 0       -0.00021   0.00033   0.00036  -0.00309  -0.00112
  51        5D+1       -0.00767   0.01103  -0.00472   0.00029   0.00006
  52        5D-1       -0.00535   0.00929   0.03410  -0.00009  -0.00021
  53        5D+2        0.00004  -0.00005   0.00031   0.02027   0.01248
  54        5D-2        0.00012  -0.00018  -0.00033   0.00214  -0.01217
  55 4   C  1S          0.00000   0.00000   0.00000   0.01660  -0.00646
  56        2S          0.00000   0.00000   0.00000   0.02595  -0.01028
  57        2PX        -0.00107   0.00120   0.00123  -0.02294   0.01400
  58        2PY        -0.00074   0.00083   0.00086   0.03530  -0.03153
  59        2PZ         0.09899  -0.11120  -0.11424   0.00002  -0.00009
  60        3S          0.00000   0.00000   0.00000  -0.04825   0.01780
  61        3PX        -0.00169   0.00174   0.00179  -0.01651   0.02005
  62        3PY        -0.00118   0.00121   0.00124   0.02539  -0.00398
  63        3PZ         0.15684  -0.16158  -0.16598   0.00001   0.00019
  64        4S          0.00000   0.00001   0.00001  -0.53944   0.36101
  65        4PX        -0.00170   0.00408   0.00422  -0.12979   0.18480
  66        4PY        -0.00117   0.00284   0.00292   0.19954  -0.16772
  67        4PZ         0.15684  -0.38009  -0.39045   0.00010   0.00073
  68        5D 0        0.00041   0.00058  -0.00055  -0.00309   0.00083
  69        5D+1        0.01204   0.01675  -0.02533  -0.00017  -0.00002
  70        5D-1        0.01428   0.02076  -0.00631  -0.00010   0.00021
  71        5D+2       -0.00002  -0.00002   0.00022  -0.00827  -0.01023
  72        5D-2       -0.00024  -0.00035   0.00026  -0.01862   0.01353
  73 5   C  1S          0.00000   0.00000   0.00000   0.01661  -0.01524
  74        2S          0.00000   0.00000   0.00000   0.02597  -0.02424
  75        2PX         0.00050   0.00047  -0.00165   0.01911  -0.03689
  76        2PY         0.00035   0.00033  -0.00115   0.03754  -0.07131
  77        2PZ        -0.04613  -0.04333   0.15342   0.00049  -0.00093
  78        3S          0.00000   0.00000   0.00000  -0.04827   0.04197
  79        3PX         0.00078   0.00068  -0.00240   0.01375  -0.01401
  80        3PY         0.00055   0.00047  -0.00168   0.02700  -0.03059
  81        3PZ        -0.07309  -0.06295   0.22291   0.00035  -0.00038
  82        4S          0.00000  -0.00002   0.00003  -0.54004   0.85106
  83        4PX         0.00079   0.00159  -0.00564   0.10802  -0.25256
  84        4PY         0.00056   0.00113  -0.00393   0.21231  -0.50962
  85        4PZ        -0.07308  -0.14811   0.52440   0.00276  -0.00655
  86        5D 0        0.00019  -0.00030  -0.00033  -0.00308   0.00194
  87        5D+1        0.01919  -0.02889  -0.01375   0.00005  -0.00001
  88        5D-1       -0.01261   0.01833  -0.00582   0.00031  -0.00028
  89        5D+2       -0.00030   0.00045   0.00010  -0.01199   0.01252
  90        5D-2       -0.00001   0.00002   0.00017   0.01648  -0.01479
  91 6   C  1S          0.00000   0.00000   0.00000   0.01660  -0.00877
  92        2S          0.00000   0.00000   0.00000   0.02596  -0.01395
  93        2PX         0.00156  -0.00166   0.00042   0.04204  -0.04588
  94        2PY         0.00109  -0.00116   0.00030   0.00221  -0.00734
  95        2PZ        -0.14512   0.15453  -0.03919   0.00047  -0.00055
  96        3S          0.00001   0.00000   0.00000  -0.04825   0.02414
  97        3PX         0.00247  -0.00242   0.00061   0.03025  -0.02002
  98        3PY         0.00173  -0.00168   0.00043   0.00159   0.01219
  99        3PZ        -0.22992   0.22451  -0.05693   0.00034  -0.00012
 100        4S         -0.00001  -0.00001  -0.00001  -0.53956   0.48968
 101        4PX         0.00245  -0.00566   0.00143   0.23767  -0.32979
 102        4PY         0.00173  -0.00396   0.00102   0.01249   0.04016
 103        4PZ        -0.22998   0.52822  -0.13395   0.00264  -0.00324
 104        5D 0       -0.00021  -0.00033  -0.00036  -0.00309   0.00112
 105        5D+1       -0.00767  -0.01103   0.00472   0.00029  -0.00006
 106        5D-1       -0.00535  -0.00929  -0.03410  -0.00009   0.00021
 107        5D+2        0.00004   0.00005  -0.00031   0.02027  -0.01248
 108        5D-2        0.00012   0.00018   0.00033   0.00214   0.01217
 109 7   H  1S          0.00000   0.00000   0.00000   0.01539  -0.00069
 110        2S          0.00001   0.00000   0.00001  -0.01366  -0.01928
 111        3S          0.00000   0.00000   0.00000   0.72885   0.53536
 112        4PX         0.00008   0.00012   0.00013  -0.01033  -0.00491
 113        4PY         0.00005   0.00009   0.00009   0.01590   0.01162
 114        4PZ        -0.00735  -0.01141  -0.01172   0.00001   0.00003
 115 8   H  1S          0.00000   0.00000   0.00000   0.01540  -0.00161
 116        2S          0.00000   0.00000   0.00000  -0.01370  -0.04544
 117        3S          0.00000  -0.00001  -0.00001   0.72947   1.26195
 118        4PX        -0.00004   0.00005  -0.00017   0.00861   0.01347
 119        4PY        -0.00003   0.00003  -0.00012   0.01691   0.02598
 120        4PZ         0.00343  -0.00445   0.01576   0.00022   0.00034
 121 9   H  1S          0.00000   0.00000   0.00000   0.01538  -0.00095
 122        2S         -0.00001  -0.00001   0.00000  -0.01368  -0.02615
 123        3S         -0.00001  -0.00001   0.00000   0.72895   0.72603
 124        4PX        -0.00012  -0.00017   0.00004   0.01893   0.01671
 125        4PY        -0.00008  -0.00012   0.00003   0.00100   0.00288
 126        4PZ         0.01078   0.01586  -0.00402   0.00021   0.00020
 127 10  H  1S          0.00000   0.00000   0.00000   0.01539   0.00069
 128        2S          0.00001   0.00000  -0.00001  -0.01366   0.01928
 129        3S          0.00000  -0.00001   0.00000   0.72885  -0.53537
 130        4PX        -0.00008   0.00012   0.00013   0.01033  -0.00491
 131        4PY        -0.00005   0.00009   0.00009  -0.01590   0.01162
 132        4PZ         0.00735  -0.01141  -0.01172  -0.00001   0.00003
 133 11  H  1S          0.00000   0.00000   0.00000   0.01540   0.00161
 134        2S          0.00000   0.00000  -0.00001  -0.01370   0.04544
 135        3S          0.00000   0.00001   0.00000   0.72947  -1.26195
 136        4PX         0.00004   0.00005  -0.00017  -0.00861   0.01347
 137        4PY         0.00003   0.00003  -0.00012  -0.01691   0.02598
 138        4PZ        -0.00343  -0.00445   0.01576  -0.00022   0.00034
 139 12  H  1S          0.00000   0.00000   0.00000   0.01538   0.00095
[...]
    R2        2.63086   0.00009   0.00000   0.00017   0.00017   2.63103
    R3        2.04810  -0.00001   0.00000  -0.00004  -0.00004   2.04806
    R4        2.63140   0.00010   0.00000   0.00020   0.00020   2.63160
    R5        2.04793   0.00000   0.00000   0.00000   0.00000   2.04793
    R6        2.63086   0.00009   0.00000   0.00017   0.00017   2.63103
    R7        2.04793  -0.00001   0.00000  -0.00002  -0.00002   2.04792
    R8        2.63098   0.00009   0.00000   0.00016   0.00016   2.63113
    R9        2.04810  -0.00001   0.00000  -0.00004  -0.00004   2.04806
   R10        2.63140   0.00010   0.00000   0.00020   0.00020   2.63160
   R11        2.04793   0.00000   0.00000   0.00000   0.00000   2.04793
   R12        2.04793  -0.00001   0.00000  -0.00002  -0.00002   2.04792
    A1        2.09435   0.00000   0.00000  -0.00003  -0.00003   2.09432
    A2        2.09441   0.00001   0.00000   0.00007   0.00007   2.09447
    A3        2.09443   0.00000   0.00000  -0.00004  -0.00004   2.09439
    A4        2.09430   0.00000   0.00000  -0.00002  -0.00002   2.09428
    A5        2.09475   0.00001   0.00000   0.00011   0.00011   2.09485
    A6        2.09413  -0.00001   0.00000  -0.00008  -0.00008   2.09405
    A7        2.09453   0.00001   0.00000   0.00005   0.00005   2.09458
    A8        2.09450  -0.00001   0.00000  -0.00006  -0.00006   2.09444
    A9        2.09415   0.00000   0.00000   0.00001   0.00001   2.09416
   A10        2.09435   0.00000   0.00000  -0.00003  -0.00003   2.09432
   A11        2.09443   0.00000   0.00000  -0.00004  -0.00004   2.09439
   A12        2.09441   0.00001   0.00000   0.00007   0.00007   2.09447
   A13        2.09430   0.00000   0.00000  -0.00002  -0.00002   2.09428
   A14        2.09475   0.00001   0.00000   0.00011   0.00011   2.09485
   A15        2.09413  -0.00001   0.00000  -0.00008  -0.00008   2.09405
   A16        2.09453   0.00001   0.00000   0.00005   0.00005   2.09458
   A17        2.09415   0.00000   0.00000   0.00001   0.00001   2.09416
   A18        2.09450  -0.00001   0.00000  -0.00006  -0.00006   2.09444
    D1        0.00007   0.00000   0.00000  -0.00002  -0.00002   0.00005
    D2       -3.14118   0.00000   0.00000  -0.00001  -0.00001  -3.14120
    D3        3.14157   0.00000   0.00000   0.00002   0.00002   3.14159
    D4        0.00031   0.00000   0.00000   0.00003   0.00003   0.00034
    D5       -0.00007   0.00000   0.00000   0.00002   0.00002  -0.00005
    D6       -3.14157   0.00000   0.00000   0.00002   0.00002  -3.14156
    D7       -3.14157   0.00000   0.00000  -0.00002  -0.00002  -3.14159
    D8        0.00012   0.00000   0.00000  -0.00003  -0.00003   0.00009
    D9       -0.00007   0.00000   0.00000   0.00002   0.00002  -0.00005
   D10       -3.14157   0.00000   0.00000   0.00002   0.00002  -3.14156
   D11        3.14118   0.00000   0.00000   0.00001   0.00001   3.14120
   D12       -0.00032   0.00000   0.00000   0.00001   0.00001  -0.00031
   D13        0.00007   0.00000   0.00000  -0.00003  -0.00003   0.00005
   D14        3.14157   0.00000   0.00000   0.00002   0.00002   3.14159
   D15        3.14157   0.00000   0.00000  -0.00002  -0.00002   3.14156
   D16       -0.00012   0.00000   0.00000   0.00003   0.00003  -0.00009
   D17       -0.00007   0.00000   0.00000   0.00003   0.00003  -0.00005
   D18        3.14118   0.00000   0.00000   0.00001   0.00001   3.14120
   D19       -3.14157   0.00000   0.00000  -0.00002  -0.00002  -3.14159
   D20       -0.00031   0.00000   0.00000  -0.00003  -0.00003  -0.00034
   D21        0.00007   0.00000   0.00000  -0.00003  -0.00003   0.00005
   D22        3.14157   0.00000   0.00000  -0.00002  -0.00002   3.14156
   D23       -3.14118   0.00000   0.00000  -0.00001  -0.00001  -3.14120
   D24        0.00032   0.00000   0.00000  -0.00001  -0.00001   0.00031
         Item               Value     Threshold  Converged?
 Maximum Force            0.000099     0.000450     YES
 RMS     Force            0.000031     0.000300     YES
 Maximum Displacement     0.000255     0.001800     YES
 RMS     Displacement     0.000092     0.001200     YES
 Predicted change in Energy=-5.305126D-08
 Optimization completed.
    -- Stationary point found.
                           ----------------------------
                           !   Optimized Parameters   !
                           ! (Angstroms and Degrees)  !
 --------------------------                            --------------------------
 ! Name  Definition              Value          Derivative Info.                !
 --------------------------------------------------------------------------------
 ! R1    R(1,2)                  1.3923         -DE/DX =    0.0001              !
 ! R2    R(1,6)                  1.3922         -DE/DX =    0.0001              !
 ! R3    R(1,7)                  1.0838         -DE/DX =    0.0                 !
 ! R4    R(2,3)                  1.3925         -DE/DX =    0.0001              !
 ! R5    R(2,8)                  1.0837         -DE/DX =    0.0                 !
 ! R6    R(3,4)                  1.3922         -DE/DX =    0.0001              !
 ! R7    R(3,9)                  1.0837         -DE/DX =    0.0                 !
 ! R8    R(4,5)                  1.3923         -DE/DX =    0.0001              !
 ! R9    R(4,10)                 1.0838         -DE/DX =    0.0                 !
 ! R10   R(5,6)                  1.3925         -DE/DX =    0.0001              !
 ! R11   R(5,11)                 1.0837         -DE/DX =    0.0                 !
 ! R12   R(6,12)                 1.0837         -DE/DX =    0.0                 !
 ! A1    A(2,1,6)              119.9972         -DE/DX =    0.0                 !
 ! A2    A(2,1,7)              120.0007         -DE/DX =    0.0                 !
 ! A3    A(6,1,7)              120.0021         -DE/DX =    0.0                 !
 ! A4    A(1,2,3)              119.9948         -DE/DX =    0.0                 !
 ! A5    A(1,2,8)              120.0202         -DE/DX =    0.0                 !
 ! A6    A(3,2,8)              119.985          -DE/DX =    0.0                 !
 ! A7    A(2,3,4)              120.008          -DE/DX =    0.0                 !
 ! A8    A(2,3,9)              120.0062         -DE/DX =    0.0                 !
 ! A9    A(4,3,9)              119.9858         -DE/DX =    0.0                 !
 ! A10   A(3,4,5)              119.9972         -DE/DX =    0.0                 !
 ! A11   A(3,4,10)             120.0021         -DE/DX =    0.0                 !
 ! A12   A(5,4,10)             120.0007         -DE/DX =    0.0                 !
 ! A13   A(4,5,6)              119.9948         -DE/DX =    0.0                 !
 ! A14   A(4,5,11)             120.0201         -DE/DX =    0.0                 !
 ! A15   A(6,5,11)             119.985          -DE/DX =    0.0                 !
 ! A16   A(1,6,5)              120.008          -DE/DX =    0.0                 !
 ! A17   A(1,6,12)             119.9858         -DE/DX =    0.0                 !
 ! A18   A(5,6,12)             120.0063         -DE/DX =    0.0                 !
 ! D1    D(6,1,2,3)              0.0041         -DE/DX =    0.0                 !
 ! D2    D(6,1,2,8)           -179.9766         -DE/DX =    0.0                 !
 ! D3    D(7,1,2,3)            179.9986         -DE/DX =    0.0                 !
 ! D4    D(7,1,2,8)              0.0179         -DE/DX =    0.0                 !
 ! D5    D(2,1,6,5)             -0.0042         -DE/DX =    0.0                 !
 ! D6    D(2,1,6,12)          -179.9989         -DE/DX =    0.0                 !
 ! D7    D(7,1,6,5)           -179.9987         -DE/DX =    0.0                 !
 ! D8    D(7,1,6,12)             0.0066         -DE/DX =    0.0                 !
 ! D9    D(1,2,3,4)             -0.0041         -DE/DX =    0.0                 !
 ! D10   D(1,2,3,9)           -179.9989         -DE/DX =    0.0                 !
 ! D11   D(8,2,3,4)            179.9766         -DE/DX =    0.0                 !
 ! D12   D(8,2,3,9)             -0.0181         -DE/DX =    0.0                 !
 ! D13   D(2,3,4,5)              0.0042         -DE/DX =    0.0                 !
 ! D14   D(2,3,4,10)           179.9987         -DE/DX =    0.0                 !
 ! D15   D(9,3,4,5)            179.9989         -DE/DX =    0.0                 !
 ! D16   D(9,3,4,10)            -0.0066         -DE/DX =    0.0                 !
 ! D17   D(3,4,5,6)             -0.0042         -DE/DX =    0.0                 !
 ! D18   D(3,4,5,11)           179.9765         -DE/DX =    0.0                 !
 ! D19   D(10,4,5,6)          -179.9987         -DE/DX =    0.0                 !
 ! D20   D(10,4,5,11)           -0.0179         -DE/DX =    0.0                 !
 ! D21   D(4,5,6,1)              0.0042         -DE/DX =    0.0                 !
 ! D22   D(4,5,6,12)           179.9989         -DE/DX =    0.0                 !
 ! D23   D(11,5,6,1)          -179.9766         -DE/DX =    0.0                 !
 ! D24   D(11,5,6,12)            0.0182         -DE/DX =    0.0                 !
 --------------------------------------------------------------------------------
 GradGradGradGradGradGradGradGradGradGradGradGradGradGradGradGradGradGrad


 Test job not archived.
 1\1\GINC-LEGACY-N4\Freq\RM062X\6-311G(d,p)\C6H6\CNS67\03-Apr-2020\0\\#
 N Geom=AllCheck Guess=TCheck SCRF=Check Test GenChk RM062X/6-311G(d,p)
  Freq\\benezene c1ccccc1\\0,1\C,-0.7501533018,1.1739909184,0.017275134
 6\C,0.6400828455,1.2472780966,0.0327443001\C,1.398781781,0.0796425985,
 0.032169385\C,0.7673133307,-1.1609992724,0.0162154385\C,-0.6229228779,
 -1.234286444,0.0007453218\C,-1.3816217789,-0.0666511041,0.0013207491\H
 ,-1.3407652666,2.0827360697,0.0177433858\H,1.13201673,2.2128261852,0.0
 455494709\H,2.4809436205,0.1364731774,0.0442273769\H,1.3579251042,-2.0
 697445497,0.0157473383\H,-1.1148565456,-2.1998346456,-0.0120605519\H,-
 2.463783641,-0.12348103,-0.0107373492\\Version=EM64L-G09RevD.01\HF=-23
 2.1996208\RMSD=4.796e-10\RMSF=4.172e-05\ZeroPoint=0.1009923\Thermal=0.
 105226\Dipole=0.,0.,-0.0000002\DipoleDeriv=-0.0353166,-0.07933,0.00063
 57,-0.0790514,0.0383645,0.0005278,0.0006056,0.0008479,-0.1685144,-0.04
 92545,0.0725334,0.0020072,0.0677828,0.04802,0.0027406,0.001806,0.00216
 56,-0.1670082,0.0873141,0.0077965,0.0027926,0.0076055,-0.083901,0.0005
 285,0.0025808,0.0005105,-0.167749,-0.0353166,-0.07933,0.0006358,-0.079
 0514,0.0383645,0.0005276,0.0006055,0.0008478,-0.1685144,-0.0492544,0.0
 725333,0.0020074,0.0677827,0.04802,0.0027409,0.0018061,0.0021659,-0.16
 70082,0.0873141,0.0077965,0.0027926,0.0076055,-0.083901,0.0005285,0.00
 25808,0.0005104,-0.167749,0.0406227,0.0901479,-0.0006954,0.0919123,-0.
 0436812,-0.000592,-0.0006978,-0.0006186,0.1677642,0.0571394,-0.0803564
 ,-0.0017559,-0.0779126,-0.0568699,-0.0025513,-0.001604,-0.0022957,0.16
 77311,-0.1005052,-0.0107914,-0.0029843,-0.0103367,0.0980676,-0.0006535
 ,-0.0026905,-0.0006096,0.1677763,0.0406228,0.0901479,-0.0006955,0.0919
 123,-0.0436812,-0.0005919,-0.0006978,-0.0006188,0.1677642,0.0571394,-0
 .0803563,-0.001756,-0.0779126,-0.05687,-0.0025515,-0.0016041,-0.002295
 6,0.1677311,-0.1005052,-0.0107914,-0.0029843,-0.0103365,0.0980676,-0.0
 006536,-0.0026906,-0.0006098,0.1677763\Polar=97.9357518,-0.0949055,97.
 5866283,0.6701593,0.4579042,35.2525621\PG=C01 [X(C6H6)]\NImag=0\\0.702
 56159,-0.03418374,0.73448521,0.00543614,0.00391918,0.14124728,-0.34646
 504,0.02664842,-0.00259476,0.69113147,-0.04956669,-0.13325445,-0.00107
 999,0.03053851,0.73333713,-0.00313810,-0.00023874,-0.06539685,0.005948
 77,0.00461299,0.13940289,-0.03228572,0.02529356,-0.00022135,-0.1940960
 7,0.13475125,-0.00038937,0.75078059,0.08381313,0.04774143,0.00119738,0
 .05827670,-0.28174840,-0.00102567,0.00480448,0.67809891,0.00023276,0.0
 0058709,0.00737653,-0.00096682,-0.00017562,-0.06509748,0.00618365,0.00
 384416,0.14026989,-0.05920113,-0.03764544,-0.00085394,0.07512217,-0.02
 222189,0.00055274,-0.17719150,-0.04865316,-0.00147536,0.70256139,-0.03
 764544,-0.02559925,-0.00054928,0.03608209,-0.05921777,-0.00011417,-0.1
 2478788,-0.30377915,-0.00294944,-0.03418355,0.73448558,-0.00085395,-0.
 00054928,-0.00728948,0.00100606,-0.00075186,0.00737004,-0.00202010,-0.
 00208516,-0.06565700,0.00543635,0.00391909,0.14124727,0.07512217,0.036
 08209,0.00100606,-0.06675614,0.03332506,-0.00038414,-0.01902977,-0.090
 91434,-0.00097108,-0.34646484,0.02664844,-0.00259497,0.69113130,-0.022
 22189,-0.05921777,-0.00075187,0.03332506,-0.01803996,0.00028755,-0.032
 45942,0.03558691,-0.00012259,-0.04956668,-0.13325444,-0.00108001,0.030
 53828,0.73333738,0.00055276,-0.00011418,0.00737004,-0.00038415,0.00028
 756,-0.00729282,-0.00054950,-0.00076097,0.00746610,-0.00313832,-0.0002
 3877,-0.06539686,0.00594903,0.00461329,0.13940288,-0.17719142,-0.12478
 771,-0.00202013,-0.01902976,-0.03245942,-0.00054950,-0.00113405,0.0044
 0791,0.00010633,-0.03228572,0.02529356,-0.00022134,-0.19409618,0.13475
 141,-0.00038932,0.75078064,-0.04865297,-0.30377882,-0.00208522,-0.0909
 1433,0.03558692,-0.00076098,0.00440790,-0.08348406,-0.00053747,0.08381
 313,0.04774143,0.00119738,0.05827688,-0.28174863,-0.00102580,0.0048039
 5,0.67809879,-0.00147541,-0.00294953,-0.06565704,-0.00097107,-0.000122
 58,0.00746610,0.00010633,-0.00053749,-0.00726174,0.00023275,0.00058711
 ,0.00737653,-0.00096676,-0.00017575,-0.06509745,0.00618365,0.00384440,
 0.14026989,-0.14352515,0.12967455,-0.00015439,-0.01124305,0.02752005,0
 .00004022,-0.00537181,-0.00154536,-0.00015132,-0.00073978,-0.00086652,
 -0.00000518,-0.00040538,-0.00319109,-0.00011102,0.01166969,-0.01358333
 ,-0.00001849,0.14796301,0.12954440,-0.26001523,-0.00025547,-0.00332308
 ,0.00551626,-0.00002119,-0.00098444,0.00172096,-0.00005533,-0.00090349
 ,0.00001697,-0.00000323,-0.00370878,-0.00330836,-0.00012419,0.01732754
 ,-0.01743715,0.00002326,-0.13908859,0.27284638,-0.00016416,-0.00025660
 ,-0.03966535,-0.00017604,0.00030603,0.00375916,-0.00015022,-0.00005347
 ,0.00766150,-0.00001099,-0.00000632,-0.00094407,-0.00010532,-0.0001210
 8,0.00765247,0.00021113,-0.00029762,0.00373816,0.00026562,0.00034140,0
 .02747588,-0.00840641,-0.02908609,-0.00035294,-0.11660961,-0.11288539,
 -0.00169242,0.01176744,0.01678012,0.00021080,-0.00120223,0.00342549,-0
 .00006910,-0.00090642,0.00076595,0.00000602,-0.00562218,0.00078931,-0.
 00013896,0.00119568,0.00045184,0.00006276,0.11910158,0.00195061,0.0028
 7984,0.00001348,-0.11274450,-0.28043526,-0.00282168,-0.01439616,-0.017
 36971,-0.00031161,0.00397531,-0.00257984,-0.00003134,0.00079939,0.0002
 2324,0.00001617,0.00023737,0.00187973,-0.00003977,-0.00034584,0.000522
 15,0.00003088,0.12115040,0.29495024,-0.00010919,-0.00031815,0.00382721
 ,-0.00170074,-0.00283056,-0.03836441,-0.00002452,0.00003443,0.00376636
 ,-0.00007317,-0.00004275,0.00767809,0.00000933,0.00001397,-0.00094504,
 -0.00013877,-0.00003685,0.00769329,0.00005902,0.00004177,-0.00430274,0
 .00191880,0.00311081,0.02605277,0.00044323,0.00326874,-0.00005087,-0.0
 1173603,-0.00387542,-0.00019168,-0.34009684,-0.01424806,-0.00302872,-0
 .00911010,0.00217666,-0.00011954,0.00099388,-0.00270093,-0.00009152,0.
 00061021,0.00007261,0.00001721,-0.00070230,-0.00021423,-0.00001062,0.0
 0073030,0.00006534,0.00005207,0.35891159,0.00269099,-0.00414975,-0.000
 05882,0.02715973,0.00609510,0.00030835,-0.01430030,-0.05992922,-0.0002
 6045,-0.02880021,0.00347165,-0.00031481,-0.00213920,-0.00475444,-0.000
 11845,0.00010611,-0.00128024,-0.00000223,0.00134661,0.00011679,0.00001
 549,-0.00069163,0.00098278,0.00003186,0.01543234,0.05820935,-0.0000496
 9,-0.00004915,0.00767394,0.00002860,-0.00002187,0.00378248,-0.00302523
 ,-0.00027008,-0.03901222,-0.00034700,0.00001842,0.00377968,-0.00009387
 ,-0.00011700,0.00766348,0.00001797,-0.00000865,-0.00094338,0.00000233,
 -0.00000174,0.00009260,0.00004896,0.00004048,-0.00431019,0.00336476,0.
 00035726,0.02675123,-0.00073978,-0.00086652,-0.00000518,-0.00040538,-0
 .00319109,-0.00011103,0.01166970,-0.01358333,-0.00001848,-0.14352509,0
 .12967451,-0.00015443,-0.01124306,0.02752006,0.00004022,-0.00537181,-0
 .00154536,-0.00015132,0.00010392,0.00013952,0.00001545,0.00040302,-0.0
 0071353,-0.00000126,0.00065214,0.00065353,0.00005901,0.14796295,-0.000
 90349,0.00001697,-0.00000323,-0.00370878,-0.00330835,-0.00012418,0.017
 32754,-0.01743715,0.00002326,0.12954437,-0.26001527,-0.00025543,-0.003
 32308,0.00551626,-0.00002120,-0.00098444,0.00172096,-0.00005533,0.0001
 3952,-0.00002292,0.00001082,0.00086558,-0.00100293,0.00000271,-0.00010
 627,0.00104706,0.00004119,-0.13908856,0.27284643,-0.00001099,-0.000006
 33,-0.00094407,-0.00010530,-0.00012108,0.00765248,0.00021113,-0.000297
 60,0.00373816,-0.00016420,-0.00025659,-0.03966535,-0.00017604,0.000306
 05,0.00375916,-0.00015023,-0.00005347,0.00766150,0.00001545,0.00001082
 ,-0.00125968,0.00000981,-0.00001603,0.00009291,0.00005258,0.00004650,-
 0.00430086,0.00026566,0.00034136,0.02747588,-0.00120222,0.00342549,-0.
 00006910,-0.00090642,0.00076595,0.00000602,-0.00562218,0.00078930,-0.0
 0013896,-0.00840641,-0.02908610,-0.00035295,-0.11660955,-0.11288533,-0
 .00169251,0.01176744,0.01678012,0.00021081,0.00040302,0.00086558,0.000
 00981,0.00013551,-0.00012505,0.00001427,-0.00058669,-0.00144052,-0.000
 01801,0.00119568,0.00045184,0.00006276,0.11910153,0.00397531,-0.002579
 83,-0.00003134,0.00079939,0.00022324,0.00001618,0.00023737,0.00187973,
 -0.00003978,0.00195061,0.00287983,0.00001348,-0.11274445,-0.28043529,-
 0.00282184,-0.01439616,-0.01736971,-0.00031162,-0.00071353,-0.00100293
 ,-0.00001603,-0.00012505,-0.00004601,0.00000784,0.00014666,-0.00000423
 ,0.00000077,-0.00034584,0.00052215,0.00003088,0.12115035,0.29495027,-0
 .00007315,-0.00004275,0.00767809,0.00000933,0.00001397,-0.00094504,-0.
 00013878,-0.00003685,0.00769328,-0.00010919,-0.00031817,0.00382721,-0.
 00170084,-0.00283070,-0.03836442,-0.00002453,0.00003441,0.00376636,-0.
 00000126,0.00000271,0.00009291,0.00001427,0.00000784,-0.00127535,-0.00
 000585,-0.00001508,0.00008712,0.00005902,0.00004177,-0.00430274,0.0019
 1891,0.00311098,0.02605277,-0.00911012,0.00217665,-0.00011954,0.000993
 87,-0.00270093,-0.00009153,0.00061021,0.00007261,0.00001721,0.00044323
 ,0.00326874,-0.00005086,-0.01173601,-0.00387542,-0.00019168,-0.3400968
 7,-0.01424790,-0.00302874,0.00065215,-0.00010627,0.00005258,-0.0005866
 9,0.00014666,-0.00000585,-0.00010939,-0.00001743,0.00001219,-0.0007023
 0,-0.00021423,-0.00001063,0.00073030,0.00006534,0.00005207,0.35891162,
 -0.02880023,0.00347164,-0.00031481,-0.00213921,-0.00475445,-0.00011845
 ,0.00010611,-0.00128024,-0.00000223,0.00269098,-0.00414975,-0.00005882
 ,0.02715972,0.00609510,0.00030836,-0.01430012,-0.05992921,-0.00026047,
 0.00065352,0.00104706,0.00004650,-0.00144052,-0.00000423,-0.00001508,-
 0.00001743,0.00019516,0.00001037,0.00134661,0.00011679,0.00001549,-0.0
 0069163,0.00098278,0.00003186,0.01543220,0.05820934,-0.00034700,0.0000
 1844,0.00377969,-0.00009388,-0.00011700,0.00766347,0.00001797,-0.00000
 867,-0.00094338,-0.00004968,-0.00004915,0.00767395,0.00002860,-0.00002
 185,0.00378248,-0.00302526,-0.00027012,-0.03901222,0.00005901,0.000041
 19,-0.00430086,-0.00001801,0.00000077,0.00008712,0.00001219,0.00001037
 ,-0.00126387,0.00000233,-0.00000174,0.00009260,0.00004896,0.00004048,-
 0.00431019,0.00336479,0.00035727,0.02675123\\0.00006001,-0.00008376,-0
 .00000425,-0.00001710,-0.00010028,0.00000212,-0.00009327,-0.00000512,-
 0.00000187,-0.00005998,0.00008384,0.00000434,0.00001707,0.00010037,-0.
 00000219,0.00009327,0.00000491,0.00000187,0.00001410,0.00002536,0.0000
 0168,0.00000903,-0.00000644,0.00000201,0.00000661,-0.00002402,0.000001
 15,-0.00001411,-0.00002536,-0.00000168,-0.00000902,0.00000643,-0.00000
 203,-0.00000661,0.00002409,-0.00000115\\\@


 "MATHEMATICS IS THE ART OF GIVING THE SAME NAME
 TO DIFFERENT THINGS."
                    - H. POINCARE
 Job cpu time:       0 days  0 hours  6 minutes 36.3 seconds.
 File lengths (MBytes):  RWF=     40 Int=      0 D2E=      0 Chk=      7 Scr=      1
 Normal termination of Gaussian 09 at Fri Apr  3 13:59:24 2020.
