 Entering Gaussian System, Link 0=g09
 Initial command:
 /ihome/crc/build/g09/g09-D.01/TAR/g09/l1.exe "/scratch/slurm-3840277/Gau-30749.inp" -scrdir="/scratch/slurm-3840277/"
 Entering Link 1 = /ihome/crc/build/g09/g09-D.01/TAR/g09/l1.exe PID=     30750.
  
 Copyright (c) 1988,1990,1992,1993,1995,1998,2003,2009,2013,
            Gaussian, Inc.  All Rights Reserved.
  
 This is part of the Gaussian(R) 09 program.  It is based on
 the Gaussian(R) 03 system (copyright 2003, Gaussian, Inc.),
 the Gaussian(R) 98 system (copyright 1998, Gaussian, Inc.),
 the Gaussian(R) 94 system (copyright 1995, Gaussian, Inc.),
 the Gaussian 92(TM) system (copyright 1992, Gaussian, Inc.),
 the Gaussian 90(TM) system (copyright 1990, Gaussian, Inc.),
 the Gaussian 88(TM) system (copyright 1988, Gaussian, Inc.),
 the Gaussian 86(TM) system (copyright 1986, Carnegie Mellon
 University), and the Gaussian 82(TM) system (copyright 1983,
 Carnegie Mellon University). Gaussian is a federally registered
 trademark of Gaussian, Inc.
  
 This software contains proprietary and confidential information,
 including trade secrets, belonging to Gaussian, Inc.
  
 This software is provided under written license and may be
 used, copied, transmitted, or stored only in accord with that
 written license.
  
 The following legend is applicable only to US Government
 contracts under FAR:
  
                    RESTRICTED RIGHTS LEGEND
  
 Use, reproduction and disclosure by the US Government is
 subject to restrictions as set forth in subparagraphs (a)
 and (c) of the Commercial Computer Software - Restricted
 Rights clause in FAR 52.227-19.
  
 Gaussian, Inc.
 340 Quinnipiac St., Bldg. 40, Wallingford CT 06492
  
  
 ---------------------------------------------------------------
 Warning -- This program may not be used in any manner that
 competes with the business of Gaussian, Inc. or will provide
 assistance to any competitor of Gaussian, Inc.  The licensee
 of this program is prohibited from giving any competitor of
 Gaussian, Inc. access to this program.  By using this program,
 the user acknowledges that Gaussian, Inc. is engaged in the
 business of creating and licensing software in the field of
 computational chemistry and represents and warrants to the
 licensee that it is not a competitor of Gaussian, Inc. and that
 it will not use this program in any manner prohibited above.
 ---------------------------------------------------------------
  

 Cite this work as:
 Gaussian 09, Revision D.01,
 M. J. Frisch, G. W. Trucks, H. B. Schlegel, G. E. Scuseria, 
 M. A. Robb, J. R. Cheeseman, G. Scalmani, V. Barone, B. Mennucci, 
 G. A. Petersson, H. Nakatsuji, M. Caricato, X. Li, H. P. Hratchian, 
 A. F. Izmaylov, J. Bloino, G. Zheng, J. L. Sonnenberg, M. Hada, 
 M. Ehara, K. Toyota, R. Fukuda, J. Hasegawa, M. Ishida, T. Nakajima, 
 Y. Honda, O. Kitao, H. Nakai, T. Vreven, J. A. Montgomery, Jr., 
 J. E. Peralta, F. Ogliaro, M. Bearpark, J. J. Heyd, E. Brothers, 
 K. N. Kudin, V. N. Staroverov, T. Keith, R. Kobayashi, J. Normand, 
 K. Raghavachari, A. Rendell, J. C. Burant, S. S. Iyengar, J. Tomasi, 
 M. Cossi, N. Rega, J. M. Millam, M. Klene, J. E. Knox, J. B. Cross, 
 V. Bakken, C. Adamo, J. Jaramillo, R. Gomperts, R. E. Stratmann, 
 O. Yazyev, A. J. Austin, R. Cammi, C. Pomelli, J. W. Ochterski, 
 R. L. Martin, K. Morokuma, V. G. Zakrzewski, G. A. Voth, 
 P. Salvador, J. J. Dannenberg, S. Dapprich, A. D. Daniels, 
 O. Farkas, J. B. Foresman, J. V. Ortiz, J. Cioslowski, 
 and D. J. Fox, Gaussian, Inc., Wallingford CT, 2013.
 
 ******************************************
 Gaussian 09:  EM64L-G09RevD.01 24-Apr-2013
                30-Mar-2020 
 ******************************************
 %Nproc=8
 Will use up to    8 processors via shared memory.
 %mem=20GB
 ----------------------------------------------------------------------
 #m062x/6-311g(d,p) opt=maxcycle=640 freq nosymm scf=(maxcycle=999) gfi
 nput iop(6/7=3) scrf=(cpcm,solvent=water) Temperature=293
 ----------------------------------------------------------------------
 1/6=640,14=-1,18=20,19=15,26=3,38=1,112=293000/1,3;
 2/9=110,12=2,15=1,17=6,18=5,40=1/2;
 3/5=4,6=6,7=101,11=2,16=1,24=10,25=1,30=1,70=2101,71=1,72=1,74=-55/1,2,3;
 4//1;
 5/5=2,7=999,38=5,53=1/2;
 6/7=3,8=2,9=2,10=2,28=1/1;
 7/30=1/1,2,3,16;
 1/6=640,14=-1,18=20,19=15,26=3/3(2);
 2/9=110,15=1/2;
 99//99;
 2/9=110,15=1/2;
 3/5=4,6=6,7=101,11=2,16=1,25=1,30=1,70=2105,71=1,72=1,74=-55/1,2,3;
 4/5=5,16=3,69=1/1;
 5/5=2,7=999,38=5,53=1/2;
 7/30=1/1,2,3,16;
 1/6=640,14=-1,18=20,19=15,26=3/3(-5);
 2/9=110,15=1/2;
 6/7=3,8=2,9=2,10=2,19=2,28=1/1;
 99/9=1/99;
 --------------------
 Cyclopentene o1cccc1
 --------------------
 Symbolic Z-matrix:
 Charge =  0 Multiplicity = 1
 O                    -0.36319  -1.11857   0.00032 
 C                    -1.15477  -0.01012   0.00017 
 C                    -0.37661   1.12603   0.00006 
 C                     0.96751   0.68909   0.00015 
 C                     0.92886  -0.68745   0.00031 
 H                    -2.18672  -0.02024   0.00014 
 H                    -0.70905   2.10301  -0.00007 
 H                     1.81089   1.28385   0.00011 
 H                     1.75761  -1.30244   0.00041 
 

 GradGradGradGradGradGradGradGradGradGradGradGradGradGradGradGradGradGrad
 Berny optimization.
 Initialization pass.
                           ----------------------------
                           !    Initial Parameters    !
                           ! (Angstroms and Degrees)  !
 --------------------------                            --------------------------
 ! Name  Definition              Value          Derivative Info.                !
 --------------------------------------------------------------------------------
 ! R1    R(1,2)                  1.3621         estimate D2E/DX2                !
 ! R2    R(1,5)                  1.3621         estimate D2E/DX2                !
 ! R3    R(2,3)                  1.3771         estimate D2E/DX2                !
 ! R4    R(2,6)                  1.032          estimate D2E/DX2                !
 ! R5    R(3,4)                  1.4134         estimate D2E/DX2                !
 ! R6    R(3,7)                  1.032          estimate D2E/DX2                !
 ! R7    R(4,5)                  1.3771         estimate D2E/DX2                !
 ! R8    R(4,8)                  1.032          estimate D2E/DX2                !
 ! R9    R(5,9)                  1.032          estimate D2E/DX2                !
 ! A1    A(2,1,5)              107.0795         estimate D2E/DX2                !
 ! A2    A(1,2,3)              110.0605         estimate D2E/DX2                !
 ! A3    A(1,2,6)              124.97           estimate D2E/DX2                !
 ! A4    A(3,2,6)              124.9695         estimate D2E/DX2                !
 ! A5    A(2,3,4)              106.3996         estimate D2E/DX2                !
 ! A6    A(2,3,7)              126.8003         estimate D2E/DX2                !
 ! A7    A(4,3,7)              126.8001         estimate D2E/DX2                !
 ! A8    A(3,4,5)              106.3997         estimate D2E/DX2                !
 ! A9    A(3,4,8)              126.8001         estimate D2E/DX2                !
 ! A10   A(5,4,8)              126.8002         estimate D2E/DX2                !
 ! A11   A(1,5,4)              110.0607         estimate D2E/DX2                !
 ! A12   A(1,5,9)              124.9696         estimate D2E/DX2                !
 ! A13   A(4,5,9)              124.9697         estimate D2E/DX2                !
 ! D1    D(5,1,2,3)              0.0002         estimate D2E/DX2                !
 ! D2    D(5,1,2,6)           -180.0            estimate D2E/DX2                !
 ! D3    D(2,1,5,4)             -0.0002         estimate D2E/DX2                !
 ! D4    D(2,1,5,9)            179.9997         estimate D2E/DX2                !
 ! D5    D(1,2,3,4)             -0.0001         estimate D2E/DX2                !
 ! D6    D(1,2,3,7)            179.9995         estimate D2E/DX2                !
 ! D7    D(6,2,3,4)           -179.9999         estimate D2E/DX2                !
 ! D8    D(6,2,3,7)             -0.0004         estimate D2E/DX2                !
 ! D9    D(2,3,4,5)              0.0            estimate D2E/DX2                !
 ! D10   D(2,3,4,8)           -179.9997         estimate D2E/DX2                !
 ! D11   D(7,3,4,5)           -179.9996         estimate D2E/DX2                !
 ! D12   D(7,3,4,8)              0.0008         estimate D2E/DX2                !
 ! D13   D(3,4,5,1)              0.0001         estimate D2E/DX2                !
 ! D14   D(3,4,5,9)           -179.9997         estimate D2E/DX2                !
 ! D15   D(8,4,5,1)            179.9998         estimate D2E/DX2                !
 ! D16   D(8,4,5,9)             -0.0001         estimate D2E/DX2                !
 --------------------------------------------------------------------------------
 Trust Radius=3.00D-01 FncErr=1.00D-07 GrdErr=1.00D-06
 Number of steps in this run=    100 maximum allowed number of steps=    100.
 GradGradGradGradGradGradGradGradGradGradGradGradGradGradGradGradGradGrad

                          Input orientation:                          
 ---------------------------------------------------------------------
 Center     Atomic      Atomic             Coordinates (Angstroms)
 Number     Number       Type             X           Y           Z
 ---------------------------------------------------------------------
      1          8           0       -0.363190   -1.118570    0.000320
      2          6           0       -1.154770   -0.010120    0.000170
      3          6           0       -0.376610    1.126030    0.000060
      4          6           0        0.967510    0.689090    0.000150
      5          6           0        0.928860   -0.687450    0.000310
      6          1           0       -2.186720   -0.020240    0.000140
      7          1           0       -0.709050    2.103010   -0.000070
      8          1           0        1.810890    1.283850    0.000110
      9          1           0        1.757610   -1.302440    0.000410
 ---------------------------------------------------------------------
                    Distance matrix (angstroms):
                    1          2          3          4          5
     1  O    0.000000
     2  C    1.362079   0.000000
     3  C    2.244640   1.377087   0.000000
     4  C    2.244637   2.234495   1.413356   0.000000
     5  C    1.362078   2.190956   2.234494   1.377083   0.000000
     6  H    2.128753   1.032000   2.142530   3.233004   3.186222
     7  H    3.240092   2.159626   1.031991   2.193177   3.235648
     8  H    3.240100   3.235660   2.193186   1.032003   2.159630
     9  H    2.128756   3.186228   3.233011   2.142534   1.032007
                    6          7          8          9
     6  H    0.000000
     7  H    2.586832   0.000000
     8  H    4.204942   2.649740   0.000000
     9  H    4.147502   4.204938   2.586839   0.000000
 Symmetry turned off by external request.
 Stoichiometry    C4H4O
 Framework group  C1[X(C4H4O)]
 Deg. of freedom    21
 Full point group                 C1      NOp   1
 Rotational constants (GHZ):      9.5366385      9.2755844      4.7021501
 Standard basis: 6-311G(d,p) (5D, 7F)
 AO basis set in the form of general basis input (Overlap normalization):
      1 0
 S   6 1.00       0.000000000000
      0.8588500000D+04  0.1895150083D-02
      0.1297230000D+04  0.1438590063D-01
      0.2992960000D+03  0.7073200310D-01
      0.8737710000D+02  0.2400010105D+00
      0.2567890000D+02  0.5947970261D+00
      0.3740040000D+01  0.2808020123D+00
 SP   3 1.00       0.000000000000
      0.4211750000D+02  0.1138890124D+00  0.3651139738D-01
      0.9628370000D+01  0.9208111006D+00  0.2371529830D+00
      0.2853320000D+01 -0.3274470358D-02  0.8197019412D+00
 SP   1 1.00       0.000000000000
      0.9056610000D+00  0.1000000000D+01  0.1000000000D+01
 SP   1 1.00       0.000000000000
      0.2556110000D+00  0.1000000000D+01  0.1000000000D+01
 D   1 1.00       0.000000000000
      0.1292000000D+01  0.1000000000D+01
 ****
      2 0
 S   6 1.00       0.000000000000
      0.4563240000D+04  0.1966650249D-02
      0.6820240000D+03  0.1523060193D-01
      0.1549730000D+03  0.7612690966D-01
      0.4445530000D+02  0.2608010331D+00
      0.1302900000D+02  0.6164620782D+00
      0.1827730000D+01  0.2210060280D+00
 SP   3 1.00       0.000000000000
      0.2096420000D+02  0.1146600807D+00  0.4024869267D-01
      0.4803310000D+01  0.9199996477D+00  0.2375939567D+00
      0.1459330000D+01 -0.3030682134D-02  0.8158538515D+00
 SP   1 1.00       0.000000000000
      0.4834560000D+00  0.1000000000D+01  0.1000000000D+01
 SP   1 1.00       0.000000000000
      0.1455850000D+00  0.1000000000D+01  0.1000000000D+01
 D   1 1.00       0.000000000000
      0.6260000000D+00  0.1000000000D+01
 ****
      3 0
 S   6 1.00       0.000000000000
      0.4563240000D+04  0.1966650249D-02
      0.6820240000D+03  0.1523060193D-01
      0.1549730000D+03  0.7612690966D-01
      0.4445530000D+02  0.2608010331D+00
      0.1302900000D+02  0.6164620782D+00
      0.1827730000D+01  0.2210060280D+00
 SP   3 1.00       0.000000000000
      0.2096420000D+02  0.1146600807D+00  0.4024869267D-01
      0.4803310000D+01  0.9199996477D+00  0.2375939567D+00
      0.1459330000D+01 -0.3030682134D-02  0.8158538515D+00
 SP   1 1.00       0.000000000000
      0.4834560000D+00  0.1000000000D+01  0.1000000000D+01
 SP   1 1.00       0.000000000000
      0.1455850000D+00  0.1000000000D+01  0.1000000000D+01
 D   1 1.00       0.000000000000
      0.6260000000D+00  0.1000000000D+01
 ****
      4 0
 S   6 1.00       0.000000000000
      0.4563240000D+04  0.1966650249D-02
      0.6820240000D+03  0.1523060193D-01
      0.1549730000D+03  0.7612690966D-01
      0.4445530000D+02  0.2608010331D+00
      0.1302900000D+02  0.6164620782D+00
      0.1827730000D+01  0.2210060280D+00
 SP   3 1.00       0.000000000000
      0.2096420000D+02  0.1146600807D+00  0.4024869267D-01
      0.4803310000D+01  0.9199996477D+00  0.2375939567D+00
      0.1459330000D+01 -0.3030682134D-02  0.8158538515D+00
 SP   1 1.00       0.000000000000
      0.4834560000D+00  0.1000000000D+01  0.1000000000D+01
 SP   1 1.00       0.000000000000
      0.1455850000D+00  0.1000000000D+01  0.1000000000D+01
 D   1 1.00       0.000000000000
      0.6260000000D+00  0.1000000000D+01
 ****
      5 0
 S   6 1.00       0.000000000000
      0.4563240000D+04  0.1966650249D-02
      0.6820240000D+03  0.1523060193D-01
      0.1549730000D+03  0.7612690966D-01
      0.4445530000D+02  0.2608010331D+00
      0.1302900000D+02  0.6164620782D+00
      0.1827730000D+01  0.2210060280D+00
 SP   3 1.00       0.000000000000
      0.2096420000D+02  0.1146600807D+00  0.4024869267D-01
      0.4803310000D+01  0.9199996477D+00  0.2375939567D+00
      0.1459330000D+01 -0.3030682134D-02  0.8158538515D+00
 SP   1 1.00       0.000000000000
      0.4834560000D+00  0.1000000000D+01  0.1000000000D+01
 SP   1 1.00       0.000000000000
      0.1455850000D+00  0.1000000000D+01  0.1000000000D+01
 D   1 1.00       0.000000000000
      0.6260000000D+00  0.1000000000D+01
 ****
      6 0
 S   3 1.00       0.000000000000
      0.3386500000D+02  0.2549381454D-01
      0.5094790000D+01  0.1903731086D+00
      0.1158790000D+01  0.8521614860D+00
 S   1 1.00       0.000000000000
      0.3258400000D+00  0.1000000000D+01
 S   1 1.00       0.000000000000
      0.1027410000D+00  0.1000000000D+01
 P   1 1.00       0.000000000000
      0.7500000000D+00  0.1000000000D+01
 ****
      7 0
 S   3 1.00       0.000000000000
      0.3386500000D+02  0.2549381454D-01
      0.5094790000D+01  0.1903731086D+00
      0.1158790000D+01  0.8521614860D+00
 S   1 1.00       0.000000000000
      0.3258400000D+00  0.1000000000D+01
 S   1 1.00       0.000000000000
      0.1027410000D+00  0.1000000000D+01
 P   1 1.00       0.000000000000
      0.7500000000D+00  0.1000000000D+01
 ****
      8 0
 S   3 1.00       0.000000000000
      0.3386500000D+02  0.2549381454D-01
      0.5094790000D+01  0.1903731086D+00
      0.1158790000D+01  0.8521614860D+00
 S   1 1.00       0.000000000000
      0.3258400000D+00  0.1000000000D+01
 S   1 1.00       0.000000000000
      0.1027410000D+00  0.1000000000D+01
 P   1 1.00       0.000000000000
      0.7500000000D+00  0.1000000000D+01
 ****
      9 0
 S   3 1.00       0.000000000000
      0.3386500000D+02  0.2549381454D-01
      0.5094790000D+01  0.1903731086D+00
      0.1158790000D+01  0.8521614860D+00
 S   1 1.00       0.000000000000
      0.3258400000D+00  0.1000000000D+01
 S   1 1.00       0.000000000000
      0.1027410000D+00  0.1000000000D+01
 P   1 1.00       0.000000000000
      0.7500000000D+00  0.1000000000D+01
 ****

   114 basis functions,   192 primitive gaussians,   119 cartesian basis functions
    18 alpha electrons       18 beta electrons
       nuclear repulsion energy       161.4259173169 Hartrees.
 NAtoms=    9 NActive=    9 NUniq=    9 SFac= 1.00D+00 NAtFMM=   60 NAOKFM=F Big=F
 Integral buffers will be    131072 words long.
 Raffenetti 2 integral format.
 Two-electron integral symmetry is turned off.
 ------------------------------------------------------------------------------
 Polarizable Continuum Model (PCM)
 =================================
 Model                : C-PCM.
 Atomic radii         : UFF (Universal Force Field).
 Polarization charges : Total charges.
 Charge compensation  : None.
 Solution method      : On-the-fly selection.
 Cavity type          : Scaled VdW (van der Waals Surface) (Alpha=1.100).
 Cavity algorithm     : GePol (No added spheres)
                        Default sphere list used, NSphG=    9.
                        Lebedev-Laikov grids with approx.  5.0 points / Ang**2.
                        Smoothing algorithm: Karplus/York (Gamma=1.0000).
                        Polarization charges: spherical gaussians, with
                                              point-specific exponents (IZeta= 3).
                        Self-potential: point-specific (ISelfS= 7).
                        Self-field    : sphere-specific E.n sum rule (ISelfD= 2).
 1st derivatives      : Analytical E(r).r(x)/FMM algorithm (CHGder, D1EAlg=3).
                        Cavity 1st derivative terms included.
 Solvent              : Water, Eps=  78.355300 Eps(inf)=   1.777849
 ------------------------------------------------------------------------------
 Spheres list:
 ISph  on   Nord     Re0    Alpha      Xe            Ye            Ze
    1   O      1    1.7500  1.100     -0.363190     -1.118570      0.000320
    2   C      2    1.9255  1.100     -1.154770     -0.010120      0.000170
    3   C      3    1.9255  1.100     -0.376610      1.126030      0.000060
    4   C      4    1.9255  1.100      0.967510      0.689090      0.000150
    5   C      5    1.9255  1.100      0.928860     -0.687450      0.000310
    6   H      6    1.4430  1.100     -2.186720     -0.020240      0.000140
    7   H      7    1.4430  1.100     -0.709050      2.103010     -0.000070
    8   H      8    1.4430  1.100      1.810890      1.283850      0.000110
    9   H      9    1.4430  1.100      1.757610     -1.302440      0.000410
 ------------------------------------------------------------------------------
 One-electron integrals computed using PRISM.
 NBasis=   114 RedAO= T EigKep=  6.20D-04  NBF=   114
 NBsUse=   114 1.00D-06 EigRej= -1.00D+00 NBFU=   114
 ExpMin= 1.03D-01 ExpMax= 8.59D+03 ExpMxC= 1.30D+03 IAcc=1 IRadAn=         1 AccDes= 0.00D+00
 Harris functional with IExCor= 1009 and IRadAn=       1 diagonalized for initial guess.
 HarFok:  IExCor= 1009 AccDes= 0.00D+00 IRadAn=         1 IDoV= 1 UseB2=F ITyADJ=14
 ICtDFT=  3500011 ScaDFX=  1.000000  1.000000  1.000000  1.000000
 FoFCou: FMM=F IPFlag=           0 FMFlag=      100000 FMFlg1=           0
         NFxFlg=           0 DoJE=T BraDBF=F KetDBF=T FulRan=T
         wScrn=  0.000000 ICntrl=     500 IOpCl=  0 I1Cent=   200000004 NGrid=           0
         NMat0=    1 NMatS0=      1 NMatT0=    0 NMatD0=    1 NMtDS0=    0 NMtDT0=    0
 Symmetry not used in FoFCou.
 Keep R1 ints in memory in canonical form, NReq=26391829.
 Requested convergence on RMS density matrix=1.00D-08 within 999 cycles.
 Requested convergence on MAX density matrix=1.00D-06.
 Requested convergence on             energy=1.00D-06.
 No special actions if energy rises.
 Inv3:  Mode=1 IEnd=     2365632.
 Iteration    1 A*A^-1 deviation from unit magnitude is 4.55D-15 for    255.
 Iteration    1 A*A^-1 deviation from orthogonality  is 2.70D-15 for    790    488.
 Iteration    1 A^-1*A deviation from unit magnitude is 4.66D-15 for    595.
 Iteration    1 A^-1*A deviation from orthogonality  is 1.63D-15 for    882    530.
 Error on total polarization charges =  0.00730
 SCF Done:  E(RM062X) =  -229.976540477     A.U. after   11 cycles
            NFock= 11  Conv=0.64D-08     -V/T= 2.0027

 **********************************************************************

            Population analysis using the SCF density.

 **********************************************************************

 Alpha  occ. eigenvalues --  -19.70096 -10.58965 -10.58961 -10.53224 -10.53156
 Alpha  occ. eigenvalues --   -1.24247  -0.90405  -0.84656  -0.68313  -0.66879
 Alpha  occ. eigenvalues --   -0.63458  -0.53986  -0.53759  -0.47568  -0.47167
 Alpha  occ. eigenvalues --   -0.43843  -0.34754  -0.28455
 Alpha virt. eigenvalues --    0.04077   0.10367   0.10537   0.12453   0.13424
 Alpha virt. eigenvalues --    0.15520   0.18155   0.24029   0.30197   0.35370
 Alpha virt. eigenvalues --    0.35773   0.40837   0.42880   0.45221   0.46627
 Alpha virt. eigenvalues --    0.47862   0.51139   0.52891   0.53561   0.54996
 Alpha virt. eigenvalues --    0.59344   0.64624   0.67762   0.69004   0.69473
 Alpha virt. eigenvalues --    0.75719   0.76447   0.83340   0.84534   0.87827
 Alpha virt. eigenvalues --    0.90055   0.93500   1.02174   1.07044   1.14321
 Alpha virt. eigenvalues --    1.14793   1.18111   1.22945   1.23998   1.38392
 Alpha virt. eigenvalues --    1.49274   1.53749   1.55964   1.59379   1.60485
 Alpha virt. eigenvalues --    1.61730   1.63922   1.70237   1.70863   1.75497
 Alpha virt. eigenvalues --    1.79976   1.90518   1.91973   1.93166   1.94073
 Alpha virt. eigenvalues --    2.01077   2.03459   2.04827   2.18149   2.26394
 Alpha virt. eigenvalues --    2.33968   2.36614   2.46504   2.58810   2.62427
 Alpha virt. eigenvalues --    2.63204   2.66183   2.69945   2.70838   2.74518
 Alpha virt. eigenvalues --    2.75944   2.78021   2.78957   2.99494   3.02939
 Alpha virt. eigenvalues --    3.12837   3.19640   3.23106   3.24141   3.42282
 Alpha virt. eigenvalues --    3.48558   3.49335   3.54653   3.94276   4.05183
 Alpha virt. eigenvalues --    4.11365   4.18226   4.39155   4.92736   5.38243
 Alpha virt. eigenvalues --    5.87247  23.77632  23.96765  24.18579  24.29016
 Alpha virt. eigenvalues --   49.94943
     Molecular Orbital Coefficients:
                           1         2         3         4         5
                           O         O         O         O         O
     Eigenvalues --   -19.70096 -10.58965 -10.58961 -10.53224 -10.53156
   1 1   O  1S          0.55291  -0.00002  -0.00008   0.00001   0.00000
   2        2S          0.46950  -0.00005  -0.00017   0.00001   0.00000
   3        2PX         0.00044   0.00021   0.00002   0.00001  -0.00002
   4        2PY         0.00135   0.00001   0.00026   0.00004   0.00001
   5        2PZ         0.00000   0.00000   0.00000   0.00000   0.00000
   6        3S          0.00880   0.00032   0.00111   0.00023   0.00000
   7        3PX        -0.00005   0.00033  -0.00014  -0.00008   0.00010
   8        3PY        -0.00015  -0.00014  -0.00008  -0.00025  -0.00004
   9        3PZ         0.00000   0.00000   0.00000   0.00000   0.00000
  10        4S         -0.00605  -0.00076  -0.00259  -0.00262  -0.00003
  11        4PX        -0.00039  -0.00095  -0.00007  -0.00026   0.00078
  12        4PY        -0.00119  -0.00001  -0.00107  -0.00076  -0.00026
  13        4PZ         0.00000   0.00000   0.00000   0.00000   0.00000
  14        5D 0       -0.00001   0.00010   0.00035   0.00012   0.00000
  15        5D+1        0.00000   0.00000   0.00000   0.00000   0.00000
  16        5D-1        0.00000   0.00000   0.00000   0.00000   0.00000
  17        5D+2        0.00003  -0.00013   0.00005  -0.00009   0.00007
  18        5D-2       -0.00002  -0.00018   0.00005   0.00006   0.00010
  19 2   C  1S          0.00001  -0.27122   0.49462  -0.00299  -0.00313
  20        2S         -0.00005  -0.22293   0.40664  -0.00233  -0.00250
  21        2PX         0.00001  -0.00026   0.00041   0.00026   0.00029
  22        2PY        -0.00013   0.00068  -0.00116   0.00049   0.00033
  23        2PZ         0.00000   0.00000   0.00000   0.00000   0.00000
  24        3S          0.00032  -0.00671   0.01110  -0.00039  -0.00001
  25        3PX         0.00037   0.00048  -0.00068  -0.00118  -0.00094
  26        3PY         0.00004  -0.00117   0.00158  -0.00188  -0.00083
  27        3PZ         0.00000   0.00000   0.00000   0.00000   0.00000
  28        4S          0.00196   0.00359  -0.00158   0.00177   0.00388
  29        4PX         0.00182   0.00380  -0.00035   0.00223   0.00222
  30        4PY        -0.00074   0.00103  -0.00072   0.00026   0.00024
  31        4PZ         0.00000   0.00000   0.00000   0.00000   0.00000
  32        5D 0       -0.00007   0.00064  -0.00135   0.00035   0.00043
  33        5D+1        0.00000   0.00000   0.00000   0.00000   0.00000
  34        5D-1        0.00000   0.00000   0.00000   0.00000   0.00000
  35        5D+2        0.00006  -0.00032   0.00069   0.00050   0.00001
  36        5D-2        0.00020  -0.00060   0.00062  -0.00113  -0.00071
  37 3   C  1S          0.00000  -0.00205   0.00363   0.39353   0.40408
  38        2S          0.00001  -0.00173   0.00313   0.32353   0.33208
  39        2PX        -0.00004   0.00032  -0.00037   0.00049  -0.00033
  40        2PY        -0.00003   0.00028  -0.00054  -0.00005   0.00023
  41        2PZ         0.00000   0.00000   0.00000   0.00000   0.00000
  42        3S          0.00004  -0.00011  -0.00007   0.00960   0.00985
  43        3PX         0.00020  -0.00155   0.00125  -0.00156   0.00074
  44        3PY         0.00037  -0.00098   0.00236   0.00044  -0.00041
  45        3PZ         0.00000   0.00000   0.00000   0.00000   0.00000
  46        4S         -0.00041  -0.00280   0.00019  -0.00278  -0.00823
  47        4PX        -0.00061   0.00014  -0.00027  -0.00041  -0.00231
  48        4PY         0.00118   0.00149  -0.00008   0.00206   0.00602
  49        4PZ         0.00000   0.00000   0.00000   0.00000   0.00000
  50        5D 0        0.00000  -0.00028   0.00053  -0.00078  -0.00140
  51        5D+1        0.00000   0.00000   0.00000   0.00000   0.00000
  52        5D-1        0.00000   0.00000   0.00000   0.00000   0.00000
  53        5D+2        0.00003  -0.00069   0.00029  -0.00115  -0.00020
  54        5D-2       -0.00016   0.00085  -0.00127   0.00034  -0.00089
  55 4   C  1S          0.00000   0.00368   0.00195   0.40400  -0.39361
  56        2S          0.00001   0.00314   0.00171   0.33213  -0.32348
  57        2PX         0.00002   0.00007  -0.00007  -0.00042  -0.00042
  58        2PY        -0.00004  -0.00071  -0.00033   0.00025   0.00001
  59        2PZ         0.00000   0.00000   0.00000   0.00000   0.00000
  60        3S          0.00004   0.00005  -0.00011   0.00985  -0.00959
  61        3PX         0.00005  -0.00037   0.00068   0.00150   0.00088
  62        3PY         0.00041   0.00286   0.00132  -0.00056  -0.00012
  63        3PZ         0.00000   0.00000   0.00000   0.00000   0.00000
  64        4S         -0.00041   0.00246  -0.00134  -0.00300   0.00815
  65        4PX         0.00119  -0.00056   0.00056   0.00169  -0.00537
  66        4PY         0.00059  -0.00121   0.00050   0.00152  -0.00348
  67        4PZ         0.00000   0.00000   0.00000   0.00000   0.00000
  68        5D 0        0.00000   0.00052   0.00029  -0.00082   0.00138
  69        5D+1        0.00000   0.00000   0.00000   0.00000   0.00000
  70        5D-1        0.00000   0.00000   0.00000   0.00000   0.00000
  71        5D+2        0.00016   0.00156   0.00055  -0.00066  -0.00080
  72        5D-2        0.00002  -0.00027   0.00031   0.00100  -0.00044
  73 5   C  1S          0.00001   0.49462   0.27121  -0.00307   0.00305
  74        2S         -0.00005   0.40660   0.22301  -0.00239   0.00244
  75        2PX        -0.00009  -0.00105  -0.00053   0.00008   0.00004
  76        2PY        -0.00010  -0.00071  -0.00037   0.00056  -0.00043
  77        2PZ         0.00000   0.00000   0.00000   0.00000   0.00000
  78        3S          0.00032   0.01162   0.00575  -0.00039   0.00000
  79        3PX        -0.00027   0.00170   0.00067  -0.00015  -0.00027
  80        3PY         0.00025   0.00103   0.00038  -0.00224   0.00117
  81        3PZ         0.00000   0.00000   0.00000   0.00000   0.00000
  82        4S          0.00196  -0.00387   0.00060   0.00188  -0.00384
  83        4PX        -0.00191   0.00201  -0.00145  -0.00169   0.00161
  84        4PY         0.00047  -0.00301   0.00098   0.00157  -0.00146
  85        4PZ         0.00000   0.00000   0.00000   0.00000   0.00000
  86        5D 0       -0.00007  -0.00127  -0.00079   0.00036  -0.00042
  87        5D+1        0.00000   0.00000   0.00000   0.00000   0.00000
  88        5D-1        0.00000   0.00000   0.00000   0.00000   0.00000
  89        5D+2       -0.00017  -0.00060  -0.00006   0.00124  -0.00065
  90        5D-2       -0.00012  -0.00087  -0.00045  -0.00012  -0.00021
  91 6   H  1S         -0.00010  -0.00018   0.00003  -0.00022  -0.00004
  92        2S          0.00047   0.00295  -0.00329   0.00005  -0.00009
  93        3S          0.00032   0.00039   0.00117   0.00080   0.00054
  94        4PX         0.00001   0.00120  -0.00200  -0.00030  -0.00017
  95        4PY         0.00015  -0.00009   0.00003  -0.00011  -0.00010
  96        4PZ         0.00000   0.00000   0.00000   0.00000   0.00000
  97 7   H  1S          0.00002  -0.00001  -0.00014   0.00008   0.00022
  98        2S         -0.00060   0.00005  -0.00096  -0.00343  -0.00374
  99        3S         -0.00033  -0.00033   0.00034   0.00058  -0.00069
 100        4PX        -0.00001  -0.00008  -0.00006  -0.00070  -0.00041
 101        4PY         0.00012  -0.00010   0.00052   0.00167   0.00151
 102        4PZ         0.00000   0.00000   0.00000   0.00000   0.00000
 103 8   H  1S          0.00002  -0.00007  -0.00012   0.00008  -0.00022
 104        2S         -0.00060  -0.00056  -0.00078  -0.00353   0.00365
 105        3S         -0.00033   0.00046   0.00011   0.00056   0.00070
 106        4PX         0.00008   0.00018   0.00030   0.00158  -0.00117
 107        4PY         0.00009   0.00031   0.00025   0.00096  -0.00095
 108        4PZ         0.00000   0.00000   0.00000   0.00000   0.00000
 109 9   H  1S         -0.00010   0.00016  -0.00007  -0.00022   0.00003
 110        2S          0.00047  -0.00426  -0.00119   0.00005   0.00009
 111        3S          0.00032   0.00030   0.00120   0.00081  -0.00052
 112        4PX         0.00008   0.00174   0.00083   0.00018  -0.00008
 113        4PY         0.00012  -0.00116  -0.00063  -0.00027   0.00017
 114        4PZ         0.00000   0.00000   0.00000   0.00000   0.00000
                           6         7         8         9        10
                           O         O         O         O         O
     Eigenvalues --    -1.24247  -0.90405  -0.84656  -0.68313  -0.66879
   1 1   O  1S         -0.10555   0.04131   0.00000  -0.00001   0.02727
   2        2S         -0.17365   0.06882   0.00001  -0.00001   0.04572
   3        2PX         0.01495   0.00814  -0.11327   0.13845   0.00652
   4        2PY         0.04600   0.02502   0.03682  -0.04501   0.01991
   5        2PZ         0.00000   0.00000  -0.00001   0.00001   0.00000
   6        3S          0.49911  -0.20773  -0.00004   0.00006  -0.13886
   7        3PX         0.02419   0.01119  -0.16798   0.20703   0.00830
   8        3PY         0.07434   0.03442   0.05461  -0.06730   0.02532
   9        3PZ        -0.00001   0.00000  -0.00001   0.00001   0.00000
  10        4S          0.37113  -0.17110   0.00006   0.00000  -0.15012
  11        4PX         0.01269   0.00921  -0.09172   0.13466   0.00891
  12        4PY         0.03919   0.02831   0.02983  -0.04379   0.02725
  13        4PZ         0.00000   0.00000  -0.00001   0.00001   0.00000
  14        5D 0       -0.00961  -0.00072   0.00000   0.00000  -0.00064
  15        5D+1        0.00000   0.00000   0.00000   0.00000   0.00000
  16        5D-1        0.00000   0.00000   0.00000   0.00000   0.00000
  17        5D+2        0.00111  -0.00510  -0.00862   0.00766   0.00131
  18        5D-2       -0.00081   0.00371  -0.01185   0.01054  -0.00095
  19 2   C  1S         -0.03812  -0.02943  -0.07364   0.00818  -0.05561
  20        2S         -0.06053  -0.04743  -0.11873   0.01353  -0.09051
  21        2PX         0.03373   0.01964   0.00328   0.00545  -0.06672
  22        2PY        -0.03252   0.05455  -0.00396   0.10149   0.02797
  23        2PZ         0.00000  -0.00001   0.00000  -0.00001  -0.00001
  24        3S          0.15112   0.12591   0.31351  -0.03770   0.24416
  25        3PX         0.05170   0.03055   0.01365   0.00248  -0.09152
  26        3PY        -0.05465   0.07986  -0.02069   0.15517   0.03376
  27        3PZ         0.00001  -0.00001   0.00000  -0.00002  -0.00001
  28        4S          0.02875   0.04718   0.18275  -0.03676   0.18004
  29        4PX        -0.01930  -0.00634   0.01621  -0.00229  -0.04531
  30        4PY         0.00777   0.01714   0.01043   0.03985   0.01845
  31        4PZ         0.00000   0.00000   0.00000   0.00000   0.00000
  32        5D 0       -0.01272  -0.00572  -0.01168   0.00387  -0.00414
  33        5D+1        0.00000   0.00000   0.00000   0.00000   0.00000
  34        5D-1        0.00000   0.00000   0.00000   0.00000   0.00000
  35        5D+2        0.00026   0.00998  -0.00974   0.00642   0.00493
  36        5D-2       -0.01982   0.01409  -0.00613   0.01536   0.00348
  37 3   C  1S         -0.01236  -0.07497  -0.03393  -0.05395   0.02766
  38        2S         -0.01962  -0.11990  -0.05443  -0.08745   0.04504
  39        2PX         0.00143   0.02087  -0.03666  -0.05344  -0.07259
  40        2PY        -0.01423  -0.03050  -0.01858   0.02122  -0.04146
  41        2PZ         0.00000   0.00000   0.00000   0.00000   0.00000
  42        3S          0.04880   0.30466   0.13978   0.22738  -0.11908
  43        3PX        -0.00199   0.03255  -0.05588  -0.07495  -0.10866
  44        3PY        -0.02497  -0.04199  -0.02826   0.03154  -0.05943
  45        3PZ         0.00000   0.00001   0.00000  -0.00001   0.00000
  46        4S          0.01446   0.16074   0.07157   0.18270  -0.09057
  47        4PX         0.00945   0.00907  -0.00419  -0.03430  -0.03827
  48        4PY        -0.01569  -0.02019  -0.00728   0.00400  -0.02497
  49        4PZ         0.00000   0.00000   0.00000   0.00000   0.00000
  50        5D 0       -0.00347  -0.01275  -0.00436  -0.00518   0.00277
  51        5D+1        0.00000   0.00000   0.00000   0.00000   0.00000
  52        5D-1        0.00000   0.00000   0.00000   0.00000   0.00000
  53        5D+2       -0.00267   0.00097  -0.00616  -0.00339  -0.00279
  54        5D-2        0.00224  -0.00534   0.00990   0.00282   0.00831
  55 4   C  1S         -0.01236  -0.07498   0.03392   0.05394   0.02768
  56        2S         -0.01962  -0.11991   0.05441   0.08742   0.04507
  57        2PX        -0.00952  -0.03481  -0.01873  -0.05570   0.03432
  58        2PY        -0.01067  -0.01240   0.03659   0.01430  -0.07622
  59        2PZ         0.00000   0.00000   0.00000   0.00000   0.00001
  60        3S          0.04879   0.30469  -0.13972  -0.22730  -0.11917
  61        3PX        -0.01308  -0.05101  -0.02860  -0.07918   0.05291
  62        3PY        -0.02136  -0.01483   0.05570   0.01863  -0.11198
  63        3PZ         0.00000   0.00000  -0.00001   0.00000   0.00001
  64        4S          0.01449   0.16066  -0.07150  -0.18266  -0.09060
  65        4PX        -0.01688  -0.01919   0.00090  -0.03010   0.01625
  66        4PY        -0.00718  -0.01097   0.00835   0.01695  -0.04270
  67        4PZ         0.00000   0.00000   0.00000   0.00000   0.00001
  68        5D 0       -0.00347  -0.01276   0.00436   0.00518   0.00277
  69        5D+1        0.00000   0.00000   0.00000   0.00000   0.00000
  70        5D-1        0.00000   0.00000   0.00000   0.00000   0.00000
  71        5D+2       -0.00295   0.00538   0.01132   0.00373  -0.00876
  72        5D-2        0.00184   0.00072  -0.00280  -0.00235   0.00009
  73 5   C  1S         -0.03812  -0.02945   0.07363  -0.00816  -0.05562
  74        2S         -0.06053  -0.04744   0.11871  -0.01349  -0.09052
  75        2PX        -0.04641   0.01619   0.00500  -0.05530   0.07037
  76        2PY        -0.00647   0.05568   0.00128  -0.08529  -0.01664
  77        2PZ         0.00000  -0.00001   0.00000   0.00001   0.00000
  78        3S          0.15111   0.12593  -0.31345   0.03759   0.24420
  79        3PX        -0.07394   0.02225   0.02321  -0.08929   0.09382
  80        3PY        -0.01380   0.08256   0.00873  -0.12696  -0.02656
  81        3PZ         0.00000  -0.00001   0.00000   0.00001   0.00001
  82        4S          0.02880   0.04734  -0.18278   0.03670   0.18006
  83        4PX         0.02011   0.01509   0.00708  -0.02531   0.04747
  84        4PY        -0.00506   0.01024  -0.01802  -0.03087  -0.01175
  85        4PZ         0.00000   0.00000   0.00000   0.00000   0.00000
  86        5D 0       -0.01273  -0.00573   0.01169  -0.00387  -0.00415
  87        5D+1        0.00000   0.00000   0.00000   0.00000   0.00000
  88        5D-1        0.00000   0.00000   0.00000   0.00000   0.00000
  89        5D+2        0.01893  -0.01032  -0.00283   0.01263  -0.00178
  90        5D-2        0.00586  -0.01384  -0.01116   0.01085  -0.00575
  91 6   H  1S          0.00935   0.01235   0.06138  -0.01370   0.10479
  92        2S          0.00267   0.00942   0.07488  -0.02116   0.12682
  93        3S         -0.00946  -0.00663   0.00463  -0.00595   0.01424
  94        4PX         0.00150   0.00016   0.01312  -0.00375   0.01518
  95        4PY        -0.00330   0.00229  -0.00016   0.00426   0.00121
  96        4PZ         0.00000   0.00000   0.00000   0.00000   0.00000
  97 7   H  1S          0.00138   0.04058   0.02539   0.08133  -0.04021
  98        2S          0.00908   0.04507   0.02960   0.09700  -0.04796
  99        3S          0.00262  -0.00046   0.00113   0.01560  -0.00657
 100        4PX         0.00007   0.00294  -0.00085   0.00239  -0.00509
 101        4PY        -0.00149  -0.00584  -0.00511  -0.01189   0.00438
 102        4PZ         0.00000   0.00000   0.00000   0.00000   0.00000
 103 8   H  1S          0.00138   0.04059  -0.02538  -0.08130  -0.04024
 104        2S          0.00909   0.04507  -0.02959  -0.09697  -0.04801
 105        3S          0.00264  -0.00046  -0.00114  -0.01559  -0.00657
 106        4PX        -0.00094  -0.00581   0.00232   0.00892   0.00670
 107        4PY        -0.00117  -0.00300   0.00463   0.00821   0.00055
 108        4PZ         0.00000   0.00000   0.00000   0.00000   0.00000
 109 9   H  1S          0.00935   0.01236  -0.06136   0.01365   0.10480
 110        2S          0.00267   0.00945  -0.07487   0.02110   0.12678
 111        3S         -0.00944  -0.00658  -0.00468   0.00595   0.01424
 112        4PX        -0.00315   0.00122   0.01069  -0.00554  -0.01156
 113        4PY        -0.00179   0.00195  -0.00758  -0.00125   0.00990
 114        4PZ         0.00000   0.00000   0.00000   0.00000   0.00000
                          11        12        13        14        15
                           O         O         O         O         O
     Eigenvalues --    -0.63458  -0.53986  -0.53759  -0.47568  -0.47167
   1 1   O  1S          0.02421   0.00000   0.00000   0.01217  -0.00001
   2        2S          0.04056   0.00000   0.00000   0.02031  -0.00001
   3        2PX         0.04169  -0.00001   0.13770   0.05868  -0.01506
   4        2PY         0.12825   0.00003  -0.04477   0.18053   0.00476
   5        2PZ        -0.00001   0.22515   0.00001  -0.00002   0.00000
   6        3S         -0.12564   0.00000   0.00003  -0.06033   0.00004
   7        3PX         0.06157  -0.00001   0.20549   0.08649  -0.02170
   8        3PY         0.18944   0.00004  -0.06680   0.26608   0.00686
   9        3PZ        -0.00002   0.33867   0.00002  -0.00003   0.00000
  10        4S         -0.12642   0.00000  -0.00004  -0.06994   0.00000
  11        4PX         0.04921  -0.00001   0.14580   0.07837  -0.03131
  12        4PY         0.15140   0.00004  -0.04742   0.24111   0.00999
  13        4PZ        -0.00002   0.29461   0.00002  -0.00003   0.00000
  14        5D 0       -0.00636   0.00000   0.00000  -0.00666   0.00000
  15        5D+1        0.00000   0.00622   0.00000   0.00000   0.00000
  16        5D-1        0.00000   0.01911   0.00000   0.00000   0.00000
  17        5D+2       -0.01203   0.00000   0.00916  -0.00829   0.00335
  18        5D-2        0.00874   0.00000   0.01259   0.00603   0.00459
  19 2   C  1S         -0.00194   0.00000  -0.01683  -0.00547   0.01941
  20        2S         -0.00385   0.00000  -0.02731  -0.00915   0.03240
  21        2PX         0.09384   0.00000  -0.11582   0.03413  -0.10465
  22        2PY         0.01036   0.00001   0.05391  -0.02894  -0.08094
  23        2PZ         0.00000   0.09190  -0.00001   0.00000   0.00001
  24        3S          0.01441   0.00000   0.06891   0.02746  -0.09579
  25        3PX         0.13697   0.00000  -0.16562   0.04980  -0.15117
  26        3PY         0.01297   0.00002   0.08555  -0.04851  -0.11128
  27        3PZ         0.00000   0.14739  -0.00001   0.00001   0.00001
  28        4S         -0.02591   0.00000   0.08896   0.02887  -0.09511
  29        4PX         0.04560   0.00000  -0.08365   0.02409  -0.10144
  30        4PY         0.02607   0.00001   0.03759   0.03017  -0.06405
  31        4PZ         0.00000   0.09862   0.00000   0.00000   0.00000
  32        5D 0       -0.00599   0.00000   0.00175  -0.00270   0.00075
  33        5D+1        0.00000   0.02322   0.00000   0.00000   0.00000
  34        5D-1        0.00000  -0.01732   0.00000   0.00000   0.00000
  35        5D+2        0.02055   0.00000   0.02355   0.00196  -0.00102
  36        5D-2       -0.00488   0.00000   0.01375  -0.02620  -0.00785
  37 3   C  1S          0.01759   0.00000   0.02492   0.01248   0.00304
  38        2S          0.02834   0.00000   0.04100   0.02078   0.00508
  39        2PX         0.00874   0.00000   0.00800  -0.10227   0.02704
  40        2PY        -0.09826   0.00001  -0.04178   0.09863   0.13582
  41        2PZ         0.00001   0.05005   0.00001  -0.00001  -0.00002
  42        3S         -0.07372   0.00000  -0.10907  -0.06086  -0.01903
  43        3PX         0.00787   0.00000   0.01232  -0.15263   0.04463
  44        3PY        -0.13732   0.00001  -0.05411   0.13673   0.18827
  45        3PZ         0.00002   0.07935   0.00001  -0.00002  -0.00002
  46        4S         -0.08739   0.00000  -0.13328  -0.07147   0.02625
  47        4PX         0.01751   0.00000  -0.00084  -0.06419   0.00979
  48        4PY        -0.07635   0.00001  -0.02660   0.08422   0.10612
  49        4PZ         0.00001   0.04673   0.00000  -0.00001  -0.00001
  50        5D 0       -0.00199   0.00000   0.00243   0.00171  -0.00014
  51        5D+1        0.00000   0.00095   0.00000   0.00000   0.00000
  52        5D-1        0.00000  -0.01084   0.00000   0.00000   0.00000
  53        5D+2       -0.00761   0.00000   0.01761  -0.00928  -0.00151
  54        5D-2       -0.00288   0.00000   0.00718   0.00998  -0.02464
  55 4   C  1S          0.01760   0.00000  -0.02492   0.01247  -0.00305
  56        2S          0.02835   0.00000  -0.04101   0.02076  -0.00510
  57        2PX        -0.06484   0.00000   0.03099   0.14064  -0.05818
  58        2PY        -0.07433   0.00001   0.02911   0.01947  -0.12578
  59        2PZ         0.00001   0.05006   0.00000   0.00000   0.00001
  60        3S         -0.07375   0.00000   0.10907  -0.06081   0.01909
  61        3PX        -0.08711   0.00000   0.04172   0.20374  -0.07487
  62        3PY        -0.10642   0.00001   0.03656   0.02061  -0.17852
  63        3PZ         0.00001   0.07936   0.00000   0.00000   0.00002
  64        4S         -0.08766   0.00000   0.13323  -0.07150  -0.02618
  65        4PX        -0.05894   0.00000   0.01493   0.10135  -0.05459
  66        4PY        -0.05140   0.00001   0.02205   0.03025  -0.09163
  67        4PZ         0.00000   0.04676   0.00000   0.00000   0.00001
  68        5D 0       -0.00200   0.00000  -0.00243   0.00172   0.00013
  69        5D+1        0.00000  -0.00715   0.00000   0.00000   0.00000
  70        5D-1        0.00000  -0.00821   0.00000   0.00000   0.00000
  71        5D+2        0.00039   0.00000   0.00140  -0.01238  -0.02295
  72        5D-2        0.00813   0.00000   0.01896   0.00573  -0.00903
  73 5   C  1S         -0.00193   0.00000   0.01684  -0.00549  -0.01940
  74        2S         -0.00384   0.00000   0.02732  -0.00919  -0.03238
  75        2PX        -0.06981   0.00000  -0.12539  -0.04469  -0.03701
  76        2PY         0.06355   0.00001   0.02449  -0.00316   0.12700
  77        2PZ        -0.00001   0.09192  -0.00001   0.00000  -0.00002
  78        3S          0.01434   0.00000  -0.06895   0.02757   0.09570
  79        3PX        -0.10315   0.00000  -0.18429  -0.06890  -0.05674
  80        3PY         0.09101   0.00002   0.02817  -0.00971   0.17889
  81        3PZ        -0.00001   0.14739  -0.00001   0.00000  -0.00002
  82        4S         -0.02572   0.00000  -0.08894   0.02897   0.09506
  83        4PX        -0.02173   0.00000  -0.08979  -0.00181  -0.04451
  84        4PY         0.04805   0.00001   0.01884   0.03873   0.11148
  85        4PZ        -0.00001   0.09867   0.00000   0.00000  -0.00001
  86        5D 0       -0.00600   0.00000  -0.00176  -0.00271  -0.00076
  87        5D+1        0.00000  -0.02897   0.00000   0.00000   0.00000
  88        5D-1        0.00000  -0.00035   0.00000   0.00000   0.00000
  89        5D+2        0.01098   0.00000   0.00581   0.02552  -0.00719
  90        5D-2       -0.01804   0.00000   0.02664   0.00622  -0.00340
  91 6   H  1S         -0.06468   0.00000   0.11541  -0.02210   0.06811
  92        2S         -0.07929   0.00000   0.15196  -0.02861   0.09555
  93        3S         -0.02087   0.00000   0.04340  -0.02078   0.03378
  94        4PX        -0.01241   0.00000   0.01155  -0.00303   0.00821
  95        4PY        -0.00150   0.00000   0.00266  -0.00494  -0.00478
  96        4PZ         0.00000   0.00706   0.00000   0.00000   0.00000
  97 7   H  1S         -0.08713   0.00000  -0.06591   0.09605   0.10359
  98        2S         -0.09793   0.00000  -0.08526   0.14110   0.14423
  99        3S         -0.01361   0.00000  -0.02855   0.05484   0.05741
 100        4PX        -0.00488   0.00000  -0.00164  -0.00002   0.00829
 101        4PY         0.01207   0.00000   0.00572  -0.01336  -0.00832
 102        4PZ         0.00000   0.00334   0.00000   0.00000   0.00000
 103 8   H  1S         -0.08714   0.00000   0.06589   0.09592  -0.10371
 104        2S         -0.09797   0.00000   0.08525   0.14097  -0.14446
 105        3S         -0.01363   0.00000   0.02854   0.05477  -0.05747
 106        4PX         0.01105   0.00000  -0.00470  -0.00784   0.01161
 107        4PY         0.00690   0.00000  -0.00366  -0.01083   0.00188
 108        4PZ         0.00000   0.00334   0.00000   0.00000   0.00000
 109 9   H  1S         -0.06469   0.00000  -0.11544  -0.02221  -0.06810
 110        2S         -0.07922   0.00000  -0.15191  -0.02875  -0.09546
 111        3S         -0.02080   0.00000  -0.04338  -0.02084  -0.03370
 112        4PX         0.00915   0.00000   0.00777  -0.00045   0.00945
 113        4PY        -0.00851   0.00000  -0.00895  -0.00578  -0.00095
 114        4PZ         0.00000   0.00706   0.00000   0.00000   0.00000
                          16        17        18        19        20
                           O         O         O         V         V
     Eigenvalues --    -0.43843  -0.34754  -0.28455   0.04077   0.10367
   1 1   O  1S          0.02072   0.00000   0.00000   0.00000   0.00305
   2        2S          0.03470   0.00000   0.00000   0.00000   0.00499
   3        2PX         0.04359   0.00000   0.00000   0.00000  -0.00398
   4        2PY         0.13411   0.00002   0.00000  -0.00002  -0.01218
   5        2PZ        -0.00001   0.16025   0.00002  -0.15410   0.00000
   6        3S         -0.10484   0.00000   0.00000   0.00000  -0.01466
   7        3PX         0.06206  -0.00001   0.00000   0.00001  -0.00235
   8        3PY         0.19099   0.00003   0.00000  -0.00002  -0.00715
   9        3PZ        -0.00002   0.23448   0.00001  -0.20700   0.00000
  10        4S         -0.13849   0.00000   0.00000   0.00000  -0.07423
  11        4PX         0.06313  -0.00001   0.00000   0.00001  -0.02174
  12        4PY         0.19417   0.00003   0.00000  -0.00005  -0.06645
  13        4PZ        -0.00002   0.26316   0.00003  -0.39427   0.00001
  14        5D 0       -0.00657   0.00000   0.00000   0.00000   0.00029
  15        5D+1        0.00000   0.00180   0.01609   0.00094   0.00000
  16        5D-1        0.00000   0.00551  -0.00523   0.00291   0.00000
  17        5D+2        0.00139   0.00000   0.00000   0.00000  -0.00460
  18        5D-2       -0.00101   0.00000   0.00000   0.00000   0.00334
  19 2   C  1S         -0.00541   0.00000   0.00000   0.00000   0.01864
  20        2S         -0.00917   0.00000   0.00000   0.00000   0.02936
  21        2PX        -0.05842   0.00000   0.00000   0.00000   0.05047
  22        2PY        -0.10191   0.00000  -0.00002   0.00002   0.00143
  23        2PZ         0.00001  -0.04017  -0.16439   0.15881   0.00001
  24        3S          0.02631   0.00000   0.00000   0.00000  -0.05670
  25        3PX        -0.07607   0.00000   0.00001  -0.00001   0.02744
  26        3PY        -0.15940  -0.00001  -0.00003   0.00003   0.00941
  27        3PZ         0.00002  -0.06748  -0.26265   0.23888   0.00001
  28        4S          0.03704   0.00000   0.00000   0.00000  -0.71165
  29        4PX        -0.07845   0.00000   0.00001  -0.00002   0.27221
  30        4PY        -0.04452   0.00000  -0.00003   0.00006  -0.01642
  31        4PZ         0.00000  -0.04077  -0.27856   0.51021   0.00003
  32        5D 0       -0.00194   0.00001   0.00000   0.00000  -0.00377
  33        5D+1        0.00000  -0.00323  -0.00908  -0.01425   0.00000
  34        5D-1        0.00000  -0.02820  -0.00380   0.00334   0.00000
  35        5D+2        0.02254   0.00000   0.00000   0.00000   0.02103
  36        5D-2       -0.01140   0.00000   0.00000   0.00000   0.00486
  37 3   C  1S          0.00362   0.00000   0.00000   0.00000   0.01827
  38        2S          0.00598   0.00000   0.00000   0.00000   0.02864
  39        2PX         0.14334   0.00000   0.00000   0.00000   0.01852
  40        2PY         0.03643  -0.00002  -0.00001  -0.00001  -0.06127
  41        2PZ         0.00000  -0.14859  -0.09727  -0.08662   0.00000
  42        3S         -0.01532   0.00000   0.00000   0.00000  -0.05580
  43        3PX         0.20689   0.00001   0.00000   0.00000   0.00837
  44        3PY         0.05067  -0.00003  -0.00002  -0.00001  -0.03183
  45        3PZ         0.00000  -0.23522  -0.15243  -0.12568  -0.00001
  46        4S         -0.04142   0.00000   0.00000   0.00000  -0.71109
  47        4PX         0.15159   0.00001   0.00000   0.00001   0.10531
  48        4PY         0.01286  -0.00003  -0.00002  -0.00004  -0.40510
  49        4PZ         0.00000  -0.22190  -0.16901  -0.29871   0.00002
  50        5D 0        0.00080   0.00000   0.00000   0.00000  -0.00580
  51        5D+1        0.00000  -0.01227   0.02059  -0.02798   0.00000
  52        5D-1        0.00000   0.01268   0.01190  -0.01646   0.00000
  53        5D+2        0.01318   0.00000   0.00000   0.00000  -0.01584
  54        5D-2       -0.00264   0.00000   0.00000   0.00000  -0.01509
  55 4   C  1S          0.00362   0.00000   0.00000   0.00000   0.01826
  56        2S          0.00599   0.00000   0.00000   0.00000   0.02862
  57        2PX        -0.09452   0.00000   0.00000   0.00000  -0.05099
  58        2PY         0.11376  -0.00002   0.00001  -0.00001  -0.03864
  59        2PZ        -0.00002  -0.14864   0.09720  -0.08667   0.00001
  60        3S         -0.01534   0.00000   0.00000   0.00000  -0.05579
  61        3PX        -0.13756   0.00001   0.00000   0.00000  -0.02551
  62        3PY         0.16265  -0.00003   0.00002  -0.00001  -0.02077
  63        3PZ        -0.00002  -0.23529   0.15229  -0.12577   0.00001
  64        4S         -0.04135   0.00000   0.00000  -0.00001  -0.71073
  65        4PX        -0.11512   0.00001  -0.00001   0.00001  -0.32329
  66        4PY         0.09954  -0.00003   0.00002  -0.00003  -0.26527
  67        4PZ        -0.00002  -0.22195   0.16891  -0.29887   0.00005
  68        5D 0        0.00081   0.00000   0.00000   0.00001  -0.00581
  69        5D+1        0.00000   0.01738   0.00966   0.01294   0.00000
  70        5D-1        0.00000   0.00304  -0.02172  -0.02978   0.00000
  71        5D+2        0.00658   0.00000   0.00000   0.00000   0.00949
  72        5D-2       -0.01173   0.00000   0.00000   0.00000   0.01972
  73 5   C  1S         -0.00541   0.00000   0.00000   0.00000   0.01864
  74        2S         -0.00917   0.00000   0.00000   0.00000   0.02935
  75        2PX        -0.01265   0.00000  -0.00001  -0.00001  -0.03997
  76        2PY        -0.11678  -0.00001   0.00002   0.00002   0.03081
  77        2PZ         0.00001  -0.04024   0.16438   0.15883  -0.00001
  78        3S          0.02633   0.00000   0.00000   0.00000  -0.05677
  79        3PX        -0.03218   0.00000  -0.00001  -0.00001  -0.01666
  80        3PY        -0.17367  -0.00001   0.00003   0.00003   0.02372
  81        3PZ         0.00002  -0.06758   0.26257   0.23886  -0.00001
  82        4S          0.03705   0.00000   0.00000   0.00000  -0.71071
  83        4PX         0.03735   0.00000  -0.00001  -0.00002  -0.23012
  84        4PY        -0.08216  -0.00001   0.00003   0.00006   0.14686
  85        4PZ         0.00001  -0.04092   0.27863   0.51033  -0.00005
  86        5D 0       -0.00194   0.00000   0.00000   0.00000  -0.00378
  87        5D+1        0.00000  -0.01395  -0.00510   0.01349   0.00000
  88        5D-1        0.00000  -0.02471   0.00839  -0.00570   0.00000
  89        5D+2        0.01779   0.00000   0.00000   0.00000   0.00186
  90        5D-2       -0.01793   0.00000   0.00000   0.00000  -0.02151
  91 6   H  1S          0.06849   0.00000   0.00000   0.00000   0.01138
  92        2S          0.09853   0.00000   0.00000   0.00000  -0.04718
  93        3S          0.02692   0.00000   0.00000   0.00000   0.91804
  94        4PX         0.00543   0.00000   0.00000   0.00000  -0.02426
  95        4PY        -0.00733   0.00000   0.00000   0.00000   0.00141
  96        4PZ         0.00000  -0.00381  -0.01345   0.02051   0.00000
  97 7   H  1S         -0.01712   0.00000   0.00000   0.00000   0.00923
  98        2S         -0.01078   0.00000   0.00000   0.00000  -0.04169
  99        3S         -0.00237   0.00000   0.00000   0.00000   1.07997
 100        4PX         0.00806   0.00000   0.00000   0.00000  -0.00876
 101        4PY         0.00190   0.00000   0.00000   0.00000   0.02536
 102        4PZ         0.00000  -0.01136  -0.00761  -0.01059   0.00000
 103 8   H  1S         -0.01714   0.00000   0.00000   0.00000   0.00922
 104        2S         -0.01078   0.00000   0.00000   0.00000  -0.04164
 105        3S         -0.00236   0.00000   0.00000   0.00000   1.07927
 106        4PX        -0.00539   0.00000   0.00000   0.00000   0.02198
 107        4PY         0.00627   0.00000   0.00000   0.00000   0.01535
 108        4PZ         0.00000  -0.01135   0.00759  -0.01058   0.00000
 109 9   H  1S          0.06853   0.00000   0.00000   0.00000   0.01141
 110        2S          0.09852   0.00000   0.00000   0.00000  -0.04711
 111        3S          0.02693   0.00000   0.00000   0.00000   0.91775
 112        4PX        -0.00869   0.00000   0.00000   0.00000   0.02045
 113        4PY        -0.00274   0.00000   0.00000   0.00000  -0.01313
 114        4PZ         0.00000  -0.00382   0.01345   0.02051   0.00000
                          21        22        23        24        25
                           V         V         V         V         V
     Eigenvalues --     0.10537   0.12453   0.13424   0.15520   0.18155
   1 1   O  1S          0.00000   0.00001  -0.01723   0.00001  -0.05428
   2        2S          0.00000   0.00002  -0.02983   0.00001  -0.09019
   3        2PX         0.00000   0.02048   0.01522  -0.00614   0.01655
   4        2PY         0.00000  -0.00668   0.04680   0.00198   0.05072
   5        2PZ         0.00002   0.00000   0.00000   0.00000  -0.00001
   6        3S          0.00000  -0.00003   0.10216  -0.00005   0.22270
   7        3PX         0.00000   0.02995   0.02478  -0.01860   0.02479
   8        3PY         0.00000  -0.00977   0.07619   0.00601   0.07586
   9        3PZ         0.00002   0.00000  -0.00001   0.00000  -0.00001
  10        4S          0.00000  -0.00043   0.12532  -0.00004   1.58535
  11        4PX         0.00000   0.06172   0.02129   0.11866   0.10510
  12        4PY         0.00000  -0.02022   0.06535  -0.03860   0.32213
  13        4PZ         0.00005   0.00000  -0.00001   0.00001  -0.00003
  14        5D 0        0.00000   0.00000   0.00194   0.00000  -0.00156
  15        5D+1        0.01655   0.00000   0.00000   0.00000   0.00000
  16        5D-1       -0.00538   0.00000   0.00000   0.00000   0.00000
  17        5D+2        0.00000   0.00235  -0.00718   0.00163  -0.00858
  18        5D-2        0.00000   0.00323   0.00522   0.00224   0.00624
  19 2   C  1S          0.00000  -0.01879   0.03028   0.01770   0.01466
  20        2S          0.00000  -0.03070   0.05036   0.03042   0.02577
  21        2PX         0.00001  -0.07818   0.03463   0.03036  -0.04713
  22        2PY        -0.00001  -0.00862   0.02793  -0.01031   0.09858
  23        2PZ        -0.10818   0.00000   0.00000   0.00000  -0.00001
  24        3S          0.00000   0.07877  -0.11534  -0.09807  -0.05486
  25        3PX         0.00001  -0.03045  -0.00233   0.01190  -0.05142
  26        3PY        -0.00002  -0.01211   0.02446   0.01937   0.15264
  27        3PZ        -0.15908   0.00000   0.00000   0.00000  -0.00002
  28        4S         -0.00003   0.84212  -0.81095   0.38108  -0.19194
  29        4PX         0.00003  -0.79124   0.60470   1.05556  -0.39425
  30        4PY        -0.00005  -0.01975   0.15091  -0.06855   0.94368
  31        4PZ        -0.47135  -0.00002   0.00000   0.00004  -0.00012
  32        5D 0       -0.00001   0.00864  -0.00804  -0.00821  -0.00972
  33        5D+1        0.00977   0.00000   0.00000   0.00000   0.00000
  34        5D-1        0.03287   0.00000   0.00000   0.00000   0.00000
  35        5D+2        0.00000  -0.01160   0.01206  -0.00244   0.00485
  36        5D-2        0.00000   0.00058  -0.01895   0.00563  -0.01594
  37 3   C  1S          0.00000  -0.01127  -0.01716  -0.03056   0.00166
  38        2S          0.00000  -0.01815  -0.02887  -0.05230   0.00153
  39        2PX         0.00000  -0.00309  -0.01832  -0.00753   0.03988
  40        2PY         0.00002   0.04756   0.04320   0.04619  -0.00977
  41        2PZ         0.17079  -0.00001  -0.00001  -0.00001   0.00000
  42        3S          0.00000   0.03794   0.07549   0.16177   0.02918
  43        3PX        -0.00001   0.01315   0.00865  -0.00544   0.06967
  44        3PY         0.00003   0.01824   0.00248   0.01405  -0.00493
  45        3PZ         0.23790   0.00000   0.00000   0.00000   0.00000
  46        4S         -0.00003   0.68078   0.57877  -0.36062  -0.66987
  47        4PX        -0.00002   0.07350  -0.28514  -0.53510   0.33592
  48        4PY         0.00008   0.40859   0.52893   1.55024  -0.10925
  49        4PZ         0.76876  -0.00005  -0.00008  -0.00020   0.00002
  50        5D 0        0.00000   0.00384   0.00274   0.01109  -0.00639
  51        5D+1       -0.01378   0.00000   0.00000   0.00000   0.00000
  52        5D-1        0.01602   0.00000   0.00000   0.00000   0.00000
  53        5D+2        0.00000   0.00959   0.01147  -0.00324   0.02073
  54        5D-2        0.00000  -0.00162   0.01038  -0.00077   0.00854
  55 4   C  1S          0.00000   0.01128  -0.01714   0.03057   0.00167
  56        2S          0.00000   0.01818  -0.02883   0.05233   0.00154
  57        2PX         0.00000  -0.03049   0.04018  -0.03328  -0.03798
  58        2PY        -0.00002  -0.03668   0.02413  -0.03296   0.01552
  59        2PZ        -0.17078   0.00000   0.00000   0.00000   0.00000
  60        3S          0.00000  -0.03803   0.07539  -0.16181   0.02919
  61        3PX         0.00001  -0.00005  -0.00554  -0.01267  -0.05919
  62        3PY        -0.00003  -0.02248   0.00708  -0.00821   0.03684
  63        3PZ        -0.23791   0.00000   0.00000   0.00000  -0.00001
  64        4S         -0.00003  -0.68144   0.57901   0.36008  -0.66970
  65        4PX         0.00001  -0.18105   0.54061  -1.34481  -0.33599
  66        4PY        -0.00010  -0.37382   0.25938  -0.93944   0.10867
  67        4PZ        -0.76865   0.00004  -0.00001   0.00007  -0.00002
  68        5D 0        0.00000  -0.00384   0.00273  -0.01110  -0.00640
  69        5D+1       -0.02057   0.00000   0.00000   0.00000   0.00000
  70        5D-1       -0.00486   0.00000   0.00000   0.00000   0.00000
  71        5D+2        0.00000  -0.00449  -0.00634   0.00027  -0.00174
  72        5D-2        0.00000   0.00864  -0.01412  -0.00331  -0.02237
  73 5   C  1S          0.00000   0.01879   0.03028  -0.01771   0.01468
  74        2S          0.00000   0.03069   0.05036  -0.03045   0.02579
  75        2PX         0.00000  -0.05820  -0.01160   0.03061   0.09613
  76        2PY         0.00001   0.05293   0.04297  -0.00953   0.05207
  77        2PZ         0.10814  -0.00001  -0.00001   0.00000   0.00000
  78        3S          0.00000  -0.07879  -0.11530   0.09815  -0.05474
  79        3PX        -0.00001  -0.01756   0.01625  -0.00178   0.13139
  80        3PY         0.00002   0.02768   0.01843  -0.02267   0.09329
  81        3PZ         0.15899   0.00000   0.00000   0.00000  -0.00001
  82        4S         -0.00003  -0.84172  -0.81172  -0.38076  -0.19382
  83        4PX        -0.00002  -0.62879  -0.40004   0.89429   0.87485
  84        4PY         0.00006   0.48121   0.47740  -0.56550   0.53129
  85        4PZ         0.47124  -0.00008  -0.00007   0.00010  -0.00004
  86        5D 0        0.00001  -0.00864  -0.00803   0.00821  -0.00970
  87        5D+1       -0.01143   0.00000   0.00000   0.00000   0.00000
  88        5D-1       -0.03235   0.00000   0.00000   0.00000   0.00000
  89        5D+2        0.00000   0.00412   0.02175   0.00610   0.01668
  90        5D-2        0.00000  -0.01086  -0.00563  -0.00059   0.00031
  91 6   H  1S          0.00000   0.00853   0.01478   0.00063   0.04177
  92        2S          0.00000   0.01926   0.06062   0.09018   0.17904
  93        3S          0.00005  -1.45889   1.28757   1.11846  -0.33287
  94        4PX         0.00000   0.02790  -0.01943  -0.01162   0.00890
  95        4PY         0.00000  -0.00282   0.00313  -0.00467   0.01957
  96        4PZ        -0.01393   0.00000   0.00000   0.00000   0.00000
  97 7   H  1S          0.00000   0.00725  -0.00240   0.00180  -0.03705
  98        2S          0.00000   0.03167  -0.00761  -0.14094  -0.06257
  99        3S          0.00004  -0.82060  -1.11124  -1.83707   0.37886
 100        4PX         0.00000   0.00837   0.00007   0.00879   0.00045
 101        4PY         0.00000  -0.01488  -0.02286  -0.01363  -0.00234
 102        4PZ         0.02166   0.00000   0.00000   0.00000   0.00000
 103 8   H  1S          0.00000  -0.00724  -0.00239  -0.00181  -0.03707
 104        2S          0.00000  -0.03166  -0.00755   0.14100  -0.06257
 105        3S          0.00004   0.82142  -1.10972   1.83794   0.37905
 106        4PX         0.00000   0.01553  -0.01347   0.01513  -0.00174
 107        4PY         0.00000   0.00713  -0.01844   0.00586  -0.00164
 108        4PZ        -0.02163   0.00000   0.00000   0.00000   0.00000
 109 9   H  1S          0.00000  -0.00852   0.01481  -0.00065   0.04181
 110        2S          0.00000  -0.01924   0.06055  -0.09026   0.17899
 111        3S          0.00004   1.45889   1.28749  -1.11894  -0.33282
 112        4PX         0.00000   0.02423   0.01757  -0.00666   0.00432
 113        4PY         0.00000  -0.01413  -0.00890   0.01062   0.02108
 114        4PZ         0.01393   0.00000   0.00000   0.00000   0.00000
                          26        27        28        29        30
                           V         V         V         V         V
     Eigenvalues --     0.24029   0.30197   0.35370   0.35773   0.40837
   1 1   O  1S          0.00002   0.00655   0.00000  -0.00038   0.00001
   2        2S          0.00003   0.00861  -0.00001  -0.00207   0.00002
   3        2PX         0.15926  -0.00400  -0.04112   0.01696   0.13457
   4        2PY        -0.05178  -0.01238   0.01339   0.05209  -0.04374
   5        2PZ         0.00001   0.00000   0.00000  -0.00001   0.00001
   6        3S         -0.00009   0.04083   0.00003   0.03603  -0.00011
   7        3PX         0.21153   0.00259  -0.03040   0.02950   0.17958
   8        3PY        -0.06879   0.00788   0.00993   0.09069  -0.05837
   9        3PZ         0.00001   0.00000   0.00000  -0.00001   0.00001
  10        4S         -0.00015  -0.88917   0.00008  -0.10464   0.00048
  11        4PX         0.64742  -0.13821  -0.37215   0.00935   0.78277
  12        4PY        -0.21040  -0.42481   0.12101   0.02848  -0.25419
  13        4PZ         0.00004   0.00005  -0.00003   0.00000   0.00005
  14        5D 0        0.00000   0.01845   0.00000   0.00536  -0.00001
  15        5D+1        0.00000   0.00000   0.00000   0.00000   0.00000
  16        5D-1        0.00000   0.00000   0.00000   0.00000   0.00000
  17        5D+2       -0.00431  -0.00633  -0.01759   0.01245  -0.00612
  18        5D-2       -0.00594   0.00459  -0.02419  -0.00904  -0.00844
  19 2   C  1S         -0.02669  -0.01755  -0.02283   0.01321  -0.03087
  20        2S         -0.04645  -0.02833  -0.03928   0.02508  -0.05078
  21        2PX         0.06137   0.02877   0.05914  -0.05519   0.00621
  22        2PY        -0.04870   0.08030   0.00410  -0.05676  -0.07195
  23        2PZ         0.00001  -0.00001   0.00000   0.00000   0.00001
  24        3S          0.13945  -0.03064   0.12490  -0.16785  -0.03978
  25        3PX         0.08989  -0.02675   0.14709  -0.21799  -0.09539
  26        3PY        -0.09157   0.11511  -0.09216  -0.18467  -0.18182
  27        3PZ         0.00001  -0.00001   0.00001   0.00001   0.00001
  28        4S          0.52190   2.39832   2.17734  -0.49145   3.53290
  29        4PX         0.14501   1.19079   1.37707  -0.35778   1.92095
  30        4PY        -0.60638   0.81967   2.20508  -0.30740   0.36686
  31        4PZ         0.00007  -0.00006  -0.00021   0.00003   0.00002
  32        5D 0        0.01592   0.00844   0.00737   0.01830   0.01553
  33        5D+1        0.00000   0.00000   0.00000   0.00000   0.00000
  34        5D-1        0.00001   0.00000   0.00000   0.00000   0.00000
  35        5D+2        0.03728  -0.00486   0.01366  -0.04161   0.01568
  36        5D-2        0.01824  -0.03767  -0.01761  -0.00933   0.00070
  37 3   C  1S         -0.01761   0.02500   0.00813  -0.00443   0.03735
  38        2S         -0.02892   0.04308   0.01231  -0.00470   0.06529
  39        2PX         0.08949   0.00359   0.08441   0.00955  -0.00282
  40        2PY        -0.02053   0.06499   0.03306   0.01462   0.05614
  41        2PZ         0.00001  -0.00001   0.00000   0.00000  -0.00001
  42        3S          0.03203  -0.13807   0.05234  -0.13302  -0.16376
  43        3PX         0.09746  -0.07989   0.09733   0.07216   0.05322
  44        3PY        -0.04106   0.15926   0.02360   0.25769   0.15456
  45        3PZ         0.00001  -0.00002   0.00000  -0.00003  -0.00002
  46        4S          1.91160  -1.63118  -2.76422   1.33259  -4.47519
  47        4PX         1.43825   0.78290   1.31249  -0.73518  -1.44322
  48        4PY        -0.64274   1.41877   2.06593  -0.43898   2.43984
  49        4PZ         0.00012  -0.00015  -0.00020   0.00003  -0.00032
  50        5D 0       -0.00134   0.01445   0.01311   0.02596   0.00993
  51        5D+1        0.00000  -0.00001   0.00000   0.00000   0.00000
  52        5D-1        0.00000   0.00001   0.00000   0.00001   0.00000
  53        5D+2       -0.03949   0.01041  -0.03510   0.02177  -0.00835
  54        5D-2        0.01664   0.04463   0.01639  -0.00446  -0.02191
  55 4   C  1S          0.01759   0.02501  -0.00814  -0.00441  -0.03736
  56        2S          0.02889   0.04310  -0.01232  -0.00468  -0.06530
  57        2PX         0.08445   0.03535   0.04882   0.00086  -0.03524
  58        2PY        -0.03606   0.05466  -0.07636   0.01750  -0.04376
  59        2PZ         0.00001   0.00000   0.00001   0.00000   0.00000
  60        3S         -0.03194  -0.13814  -0.05236  -0.13304   0.16377
  61        3PX         0.10292   0.15832   0.06481   0.09317  -0.04767
  62        3PY        -0.02432   0.08199  -0.07618   0.25097  -0.15655
  63        3PZ         0.00001   0.00000   0.00001  -0.00003   0.00001
  64        4S         -1.91038  -1.63364   2.76515   1.32918   4.47668
  65        4PX         1.54115   0.20281  -0.15296   0.33767  -2.60258
  66        4PY        -0.32661   1.60788  -2.44343  -0.78558  -1.12501
  67        4PZ         0.00008  -0.00018   0.00028   0.00011   0.00006
  68        5D 0        0.00133   0.01445  -0.01310   0.02597  -0.00995
  69        5D+1        0.00000   0.00000   0.00000   0.00000   0.00000
  70        5D-1        0.00000   0.00000   0.00000   0.00001   0.00000
  71        5D+2        0.02801  -0.03919   0.02643   0.01096  -0.01830
  72        5D-2       -0.03240  -0.02371  -0.02834  -0.01934  -0.01469
  73 5   C  1S          0.02668  -0.01753   0.02284   0.01319   0.03084
  74        2S          0.04643  -0.02830   0.03931   0.02506   0.05072
  75        2PX         0.07820   0.02400   0.04545   0.01128   0.04723
  76        2PY         0.00326   0.08183  -0.03814  -0.07835   0.05455
  77        2PZ         0.00000  -0.00001   0.00001   0.00001  -0.00001
  78        3S         -0.13922  -0.03095  -0.12502  -0.16789   0.04021
  79        3PX         0.12637   0.08945   0.17316   0.06770   0.02961
  80        3PY         0.02122   0.07730  -0.01207  -0.27757   0.20322
  81        3PZ         0.00000  -0.00001   0.00001   0.00003  -0.00003
  82        4S         -0.52335   2.39962  -2.17784  -0.48923  -3.53346
  83        4PX         0.47377  -0.48241  -0.18249   0.10803   1.33952
  84        4PY         0.40390   1.36403  -2.59376  -0.45672  -1.42801
  85        4PZ        -0.00003  -0.00018   0.00030   0.00006   0.00021
  86        5D 0       -0.01589   0.00841  -0.00736   0.01832  -0.01551
  87        5D+1        0.00000   0.00000   0.00000  -0.00001   0.00000
  88        5D-1        0.00000   0.00001   0.00000   0.00000   0.00000
  89        5D+2        0.00584   0.03433  -0.02096  -0.00395  -0.00418
  90        5D-2        0.04105   0.01627   0.00758   0.04248   0.01509
  91 6   H  1S          0.01152  -0.03796   0.02925  -0.04828  -0.08198
  92        2S         -0.01032  -0.26085   0.43526  -0.46861  -0.52161
  93        3S          0.06844   0.59999   0.55383  -0.10747   0.68420
  94        4PX        -0.01116  -0.02217   0.01744  -0.01165  -0.02575
  95        4PY        -0.01985   0.00813   0.00226   0.01527   0.00399
  96        4PZ         0.00000   0.00000   0.00000   0.00000   0.00000
  97 7   H  1S          0.01494  -0.03772   0.03136  -0.06167   0.03077
  98        2S          0.12236  -0.41958   0.05823  -0.72890  -0.19832
  99        3S          0.53682  -0.42315  -0.58379   0.32252  -1.00540
 100        4PX         0.00969   0.01794   0.00195  -0.03522  -0.01620
 101        4PY         0.01219   0.01742  -0.00415   0.03704   0.01332
 102        4PZ         0.00000   0.00000   0.00000  -0.00001   0.00000
 103 8   H  1S         -0.01488  -0.03772  -0.03137  -0.06163  -0.03084
 104        2S         -0.12205  -0.41984  -0.05858  -0.72905   0.19783
 105        3S         -0.53671  -0.42365   0.58402   0.32192   1.00566
 106        4PX         0.00066  -0.00425   0.00404   0.05028  -0.02094
 107        4PY        -0.01556   0.02464   0.00222   0.00927  -0.00123
 108        4PZ         0.00000   0.00000   0.00000   0.00000   0.00000
 109 9   H  1S         -0.01153  -0.03802  -0.02929  -0.04832   0.08199
 110        2S          0.01021  -0.26075  -0.43551  -0.46831   0.52041
 111        3S         -0.06834   0.60037  -0.55405  -0.10672  -0.68461
 112        4PX         0.00263   0.02272   0.01277   0.01837  -0.02313
 113        4PY         0.02261  -0.00643  -0.01207   0.00554   0.01184
 114        4PZ         0.00000   0.00000   0.00000   0.00000   0.00000
                          31        32        33        34        35
                           V         V         V         V         V
     Eigenvalues --     0.42880   0.45221   0.46627   0.47862   0.51139
   1 1   O  1S          0.00000  -0.01190  -0.00001   0.00000   0.00000
   2        2S          0.00000  -0.02069  -0.00003   0.00000   0.00000
   3        2PX         0.00000   0.02039   0.04462   0.00000   0.00000
   4        2PY         0.00000   0.06303  -0.01445   0.00000   0.00000
   5        2PZ        -0.01632  -0.00001   0.00000   0.00000  -0.01632
   6        3S          0.00000   0.06318   0.00013   0.00000   0.00000
   7        3PX         0.00000   0.03331   0.06274   0.00000   0.00000
   8        3PY         0.00000   0.10292  -0.02030   0.00000  -0.00001
   9        3PZ        -0.02590  -0.00001   0.00000   0.00001  -0.04213
  10        4S          0.00001   0.49008  -0.00017   0.00000   0.00001
  11        4PX         0.00000   0.11953   0.28301   0.00000   0.00000
  12        4PY        -0.00001   0.36894  -0.09190   0.00000  -0.00001
  13        4PZ        -0.13966  -0.00004   0.00002  -0.00006  -0.12849
  14        5D 0        0.00000  -0.01372   0.00001   0.00000   0.00000
  15        5D+1       -0.00314   0.00000   0.00000   0.01043  -0.00557
  16        5D-1       -0.00963   0.00000   0.00000  -0.00339  -0.01715
  17        5D+2        0.00000   0.00200  -0.00554   0.00000   0.00000
  18        5D-2        0.00000  -0.00144  -0.00760   0.00000   0.00000
  19 2   C  1S          0.00000   0.01377  -0.02066   0.00000   0.00000
  20        2S          0.00000   0.01954  -0.04128   0.00000   0.00000
  21        2PX         0.00000   0.00685   0.06281   0.00000   0.00000
  22        2PY        -0.00001  -0.01191   0.00636  -0.00001  -0.00001
  23        2PZ        -0.11509   0.00000   0.00000  -0.12189  -0.11415
  24        3S          0.00000   0.12627   0.30169   0.00000   0.00000
  25        3PX         0.00002   0.09814   0.26159   0.00002   0.00001
  26        3PY        -0.00005   0.07506   0.10173  -0.00006  -0.00005
  27        3PZ        -0.47144  -0.00001   0.00000  -0.54673  -0.43201
  28        4S         -0.00004  -1.98667   0.13256   0.00001  -0.00001
  29        4PX        -0.00004  -1.15664   0.68058  -0.00002  -0.00004
  30        4PY         0.00005  -1.04517  -0.57237   0.00009   0.00010
  31        4PZ         0.54721   0.00009   0.00008   0.80065   0.82849
  32        5D 0        0.00000  -0.01090  -0.00092   0.00000   0.00000
  33        5D+1       -0.02975   0.00000   0.00000  -0.04788   0.00098
  34        5D-1       -0.01324  -0.00001   0.00000  -0.00519   0.02309
  35        5D+2        0.00000  -0.03731  -0.01597   0.00000   0.00000
  36        5D-2        0.00000   0.00192   0.00036  -0.00001   0.00000
  37 3   C  1S          0.00000  -0.02026   0.03372   0.00000   0.00000
  38        2S          0.00000  -0.03388   0.05563   0.00000   0.00000
  39        2PX         0.00000  -0.10573  -0.09543   0.00000   0.00000
  40        2PY        -0.00001  -0.01984  -0.04384  -0.00001   0.00001
  41        2PZ        -0.08639   0.00000   0.00000  -0.07122   0.11553
  42        3S          0.00000  -0.02134   0.04228   0.00000   0.00000
  43        3PX         0.00001  -0.45575  -0.16440   0.00001  -0.00001
  44        3PY        -0.00005  -0.00438  -0.26589  -0.00004   0.00006
  45        3PZ        -0.40399  -0.00001   0.00003  -0.32241   0.49811
  46        4S          0.00003   1.99783  -3.63458   0.00000   0.00001
  47        4PX        -0.00001   0.05177  -1.93200  -0.00001   0.00003
  48        4PY         0.00003  -0.72810   1.03157   0.00006  -0.00012
  49        4PZ         0.34180   0.00008  -0.00017   0.42455  -0.79619
  50        5D 0       -0.00001   0.00395  -0.01524  -0.00001   0.00001
  51        5D+1       -0.00793   0.00000   0.00000   0.01930   0.04704
  52        5D-1        0.04359   0.00000   0.00000   0.03497  -0.01804
  53        5D+2       -0.00001  -0.00662   0.03059   0.00000   0.00000
  54        5D-2        0.00000  -0.00542   0.01149   0.00000   0.00001
  55 4   C  1S          0.00000  -0.02021  -0.03373   0.00000   0.00000
  56        2S          0.00000  -0.03378  -0.05566   0.00000   0.00000
  57        2PX         0.00000   0.07390  -0.05131   0.00000   0.00000
  58        2PY        -0.00001  -0.07828   0.09148   0.00001   0.00001
  59        2PZ        -0.08647   0.00001  -0.00001   0.07103   0.11558
  60        3S          0.00000  -0.02134  -0.04243   0.00000   0.00000
  61        3PX         0.00001   0.36598   0.02389  -0.00001  -0.00002
  62        3PY        -0.00004  -0.27185   0.31151   0.00004   0.00006
  63        3PZ        -0.40435   0.00005  -0.00003   0.32159   0.49832
  64        4S         -0.00002   1.99215   3.63706  -0.00001  -0.00001
  65        4PX        -0.00001  -0.46617  -2.16951   0.00002   0.00004
  66        4PY         0.00004  -0.55792   0.30081  -0.00005  -0.00007
  67        4PZ         0.34223   0.00005  -0.00010  -0.42363  -0.79656
  68        5D 0        0.00000   0.00396   0.01527   0.00001  -0.00001
  69        5D+1        0.03201   0.00000   0.00000  -0.00485  -0.04865
  70        5D-1        0.03064   0.00000   0.00000  -0.03960   0.01306
  71        5D+2        0.00000   0.00309   0.00153   0.00000   0.00000
  72        5D-2        0.00000   0.00797   0.03264   0.00000  -0.00001
  73 5   C  1S          0.00000   0.01372   0.02071   0.00000   0.00000
  74        2S          0.00000   0.01945   0.04137   0.00000   0.00000
  75        2PX         0.00000  -0.01267   0.04713   0.00000   0.00000
  76        2PY        -0.00001  -0.00558  -0.04208   0.00001  -0.00001
  77        2PZ        -0.11530   0.00000   0.00001   0.12183  -0.11409
  78        3S          0.00000   0.12677  -0.30187   0.00000   0.00000
  79        3PX         0.00002  -0.03554   0.15186  -0.00002   0.00001
  80        3PY        -0.00006   0.11859  -0.23594   0.00007  -0.00005
  81        3PZ        -0.47221  -0.00001   0.00004   0.54639  -0.43168
  82        4S          0.00003  -1.98471  -0.13523   0.00000   0.00001
  83        4PX        -0.00002   0.32045   0.88626   0.00003  -0.00003
  84        4PY         0.00008  -1.52568   0.06139  -0.00009   0.00010
  85        4PZ         0.54832   0.00019   0.00001  -0.80043   0.82806
  86        5D 0        0.00001  -0.01086   0.00091  -0.00001   0.00000
  87        5D+1        0.01625   0.00000   0.00000  -0.03561   0.01273
[...]
 Frequencies --   3268.8167              3285.1590              3295.3736
 Red. masses --      1.0935                 1.1033                 1.1108
 Frc consts  --      6.8840                 7.0152                 7.1073
 IR Inten    --      1.2884                 0.2291                 0.0852
  Atom  AN      X      Y      Z        X      Y      Z        X      Y      Z
     1   8     0.00   0.00   0.00     0.00   0.00   0.00     0.00   0.00   0.00
     2   6    -0.03   0.00   0.00     0.04   0.01   0.00    -0.07  -0.02   0.00
     3   6     0.02  -0.07   0.00    -0.01   0.00   0.00    -0.01   0.05   0.00
     4   6     0.01   0.01   0.00     0.06   0.05   0.00     0.03   0.02   0.00
     5   6     0.02  -0.02   0.00     0.02  -0.03   0.00     0.01  -0.01   0.00
     6   1     0.40   0.06   0.00    -0.46  -0.08   0.00     0.77   0.13   0.00
     7   1    -0.29   0.81   0.00     0.01  -0.02   0.00     0.16  -0.45   0.00
     8   1    -0.12  -0.09   0.00    -0.68  -0.47   0.00    -0.29  -0.20   0.00
     9   1    -0.19   0.19   0.00    -0.21   0.22   0.00    -0.12   0.12   0.00

 -------------------
 - Thermochemistry -
 -------------------
 Temperature   293.000 Kelvin.  Pressure   1.00000 Atm.
 Atom     1 has atomic number  8 and mass  15.99491
 Atom     2 has atomic number  6 and mass  12.00000
 Atom     3 has atomic number  6 and mass  12.00000
 Atom     4 has atomic number  6 and mass  12.00000
 Atom     5 has atomic number  6 and mass  12.00000
 Atom     6 has atomic number  1 and mass   1.00783
 Atom     7 has atomic number  1 and mass   1.00783
 Atom     8 has atomic number  1 and mass   1.00783
 Atom     9 has atomic number  1 and mass   1.00783
 Molecular mass:    68.02621 amu.
 Principal axes and moments of inertia in atomic units:
                           1         2         3
     Eigenvalues --   189.87871 192.91177 382.79048
           X            0.31204   0.95007  -0.00003
           Y            0.95007  -0.31204   0.00012
           Z           -0.00010   0.00007   1.00000
 This molecule is an asymmetric top.
 Rotational symmetry number  1.
 Rotational temperatures (Kelvin)      0.45615     0.44898     0.22627
 Rotational constants (GHZ):           9.50471     9.35527     4.71470
 Zero-point vibrational energy     185392.8 (Joules/Mol)
                                   44.30995 (Kcal/Mol)
 Vibrational temperatures:    890.83   903.59  1103.31  1129.57  1284.41
          (Kelvin)           1286.71  1288.60  1326.02  1469.19  1544.32
                             1580.51  1688.94  1780.98  1854.47  2057.84
                             2213.94  2335.90  4685.08  4703.09  4726.61
                             4741.30
 
 Zero-point correction=                           0.070612 (Hartree/Particle)
 Thermal correction to Energy=                    0.074166
 Thermal correction to Enthalpy=                  0.075094
 Thermal correction to Gibbs Free Energy=         0.044903
 Sum of electronic and zero-point Energies=           -229.918726
 Sum of electronic and thermal Energies=              -229.915173
 Sum of electronic and thermal Enthalpies=            -229.914245
 Sum of electronic and thermal Free Energies=         -229.944436
 
                     E (Thermal)             CV                S
                      KCal/Mol        Cal/Mol-Kelvin    Cal/Mol-Kelvin
 Total                   46.540             12.726             64.660
 Electronic               0.000              0.000              0.000
 Translational            0.873              2.981             38.483
 Rotational               0.873              2.981             24.102
 Vibrational             44.793              6.764              2.075
                       Q            Log10(Q)             Ln(Q)
 Total Bot       0.962186D-21        -21.016741        -48.392834
 Total V=0       0.108024D+13         12.033522         27.708208
 Vib (Bot)       0.110361D-32        -32.957186        -75.886726
 Vib (V=0)       0.123901D+01          0.093076          0.214316
 Electronic      0.100000D+01          0.000000          0.000000
 Translational   0.211131D+08          7.324552         16.865404
 Rotational      0.412946D+05          4.615894         10.628488
 -------------------------------------------------------------------
 Center     Atomic                   Forces (Hartrees/Bohr)
 Number     Number              X              Y              Z
 -------------------------------------------------------------------
      1        8           0.000096530    0.000325680    0.000000819
      2        6          -0.000035859   -0.000108661   -0.000000487
      3        6          -0.000177046   -0.000131355    0.000000003
      4        6           0.000059132   -0.000218437    0.000000270
      5        6          -0.000000818   -0.000105633   -0.000000606
      6        1          -0.000018292    0.000089261   -0.000000036
      7        1           0.000033645    0.000017816   -0.000000035
      8        1          -0.000025429    0.000050740    0.000000035
      9        1           0.000068136    0.000080589    0.000000036
 -------------------------------------------------------------------
 Cartesian Forces:  Max     0.000325680 RMS     0.000098800
 FormGI is forming the generalized inverse of G from B-inverse, IUseBI=4.

 GradGradGradGradGradGradGradGradGradGradGradGradGradGradGradGradGradGrad
 Berny optimization.
 Internal  Forces:  Max     0.000169605 RMS     0.000068964
 Search for a local minimum.
 Step number   1 out of a maximum of    2
 All quantities printed in internal units (Hartrees-Bohrs-Radians)
 Second derivative matrix not updated -- analytic derivatives used.
 ITU=  0
     Eigenvalues ---    0.01246   0.01491   0.01703   0.02645   0.05535
     Eigenvalues ---    0.05813   0.09013   0.09926   0.10492   0.11416
     Eigenvalues ---    0.21223   0.24869   0.34231   0.36896   0.37423
     Eigenvalues ---    0.37748   0.37933   0.39304   0.43232   0.48218
     Eigenvalues ---    0.57282
 Angle between quadratic step and forces=  36.85 degrees.
 Linear search not attempted -- first point.
 Iteration  1 RMS(Cart)=  0.00039053 RMS(Int)=  0.00000014
 Iteration  2 RMS(Cart)=  0.00000015 RMS(Int)=  0.00000001
 Variable       Old X    -DE/DX   Delta X   Delta X   Delta X     New X
                                 (Linear)    (Quad)   (Total)
    R1        2.56191  -0.00006   0.00000  -0.00021  -0.00021   2.56170
    R2        2.56204  -0.00004   0.00000  -0.00016  -0.00016   2.56188
    R3        2.55982  -0.00015   0.00000  -0.00021  -0.00021   2.55960
    R4        2.03500   0.00000   0.00000  -0.00001  -0.00001   2.03499
    R5        2.71384   0.00009   0.00000   0.00020   0.00020   2.71404
    R6        2.03661   0.00001   0.00000   0.00002   0.00002   2.03663
    R7        2.56015  -0.00015   0.00000  -0.00022  -0.00022   2.55992
    R8        2.03684   0.00001   0.00000   0.00002   0.00002   2.03686
    R9        2.03519  -0.00001   0.00000  -0.00004  -0.00004   2.03515
    A1        1.86965   0.00017   0.00000   0.00047   0.00047   1.87012
    A2        1.92809  -0.00012   0.00000  -0.00030  -0.00030   1.92780
    A3        2.02426   0.00016   0.00000   0.00093   0.00093   2.02519
    A4        2.33083  -0.00004   0.00000  -0.00063  -0.00063   2.33020
    A5        1.84962   0.00003   0.00000   0.00006   0.00006   1.84968
    A6        2.20626   0.00003   0.00000   0.00053   0.00053   2.20679
    A7        2.22730  -0.00006   0.00000  -0.00059  -0.00059   2.22671
    A8        1.84929   0.00004   0.00000   0.00008   0.00008   1.84938
    A9        2.22746  -0.00007   0.00000  -0.00065  -0.00065   2.22681
   A10        2.20643   0.00003   0.00000   0.00056   0.00056   2.20700
   A11        1.92812  -0.00012   0.00000  -0.00032  -0.00032   1.92780
   A12        2.02393   0.00016   0.00000   0.00092   0.00092   2.02485
   A13        2.33114  -0.00004   0.00000  -0.00060  -0.00060   2.33054
    D1        0.00001   0.00000   0.00000  -0.00001  -0.00001   0.00000
    D2       -3.14159   0.00000   0.00000   0.00000   0.00000  -3.14159
    D3       -0.00001   0.00000   0.00000   0.00001   0.00001   0.00000
    D4        3.14158   0.00000   0.00000   0.00000   0.00000   3.14159
    D5        0.00000   0.00000   0.00000   0.00000   0.00000   0.00000
    D6       -3.14159   0.00000   0.00000   0.00000   0.00000  -3.14159
    D7       -3.14159   0.00000   0.00000   0.00000   0.00000   3.14159
    D8        0.00000   0.00000   0.00000   0.00000   0.00000   0.00000
    D9        0.00000   0.00000   0.00000   0.00000   0.00000   0.00000
   D10       -3.14159   0.00000   0.00000   0.00000   0.00000  -3.14159
   D11        3.14159   0.00000   0.00000   0.00000   0.00000   3.14159
   D12        0.00000   0.00000   0.00000   0.00000   0.00000   0.00000
   D13        0.00000   0.00000   0.00000   0.00000   0.00000   0.00000
   D14       -3.14159   0.00000   0.00000   0.00000   0.00000  -3.14159
   D15        3.14159   0.00000   0.00000   0.00000   0.00000   3.14159
   D16        0.00000   0.00000   0.00000   0.00000   0.00000   0.00000
         Item               Value     Threshold  Converged?
 Maximum Force            0.000170     0.000450     YES
 RMS     Force            0.000069     0.000300     YES
 Maximum Displacement     0.001084     0.001800     YES
 RMS     Displacement     0.000391     0.001200     YES
 Predicted change in Energy=-3.594196D-07
 Optimization completed.
    -- Stationary point found.
                           ----------------------------
                           !   Optimized Parameters   !
                           ! (Angstroms and Degrees)  !
 --------------------------                            --------------------------
 ! Name  Definition              Value          Derivative Info.                !
 --------------------------------------------------------------------------------
 ! R1    R(1,2)                  1.3557         -DE/DX =   -0.0001              !
 ! R2    R(1,5)                  1.3558         -DE/DX =    0.0                 !
 ! R3    R(2,3)                  1.3546         -DE/DX =   -0.0001              !
 ! R4    R(2,6)                  1.0769         -DE/DX =    0.0                 !
 ! R5    R(3,4)                  1.4361         -DE/DX =    0.0001              !
 ! R6    R(3,7)                  1.0777         -DE/DX =    0.0                 !
 ! R7    R(4,5)                  1.3548         -DE/DX =   -0.0001              !
 ! R8    R(4,8)                  1.0778         -DE/DX =    0.0                 !
 ! R9    R(5,9)                  1.077          -DE/DX =    0.0                 !
 ! A1    A(2,1,5)              107.123          -DE/DX =    0.0002              !
 ! A2    A(1,2,3)              110.4716         -DE/DX =   -0.0001              !
 ! A3    A(1,2,6)              115.9818         -DE/DX =    0.0002              !
 ! A4    A(3,2,6)              133.5466         -DE/DX =    0.0                 !
 ! A5    A(2,3,4)              105.9757         -DE/DX =    0.0                 !
 ! A6    A(2,3,7)              126.4095         -DE/DX =    0.0                 !
 ! A7    A(4,3,7)              127.6148         -DE/DX =   -0.0001              !
 ! A8    A(3,4,5)              105.9567         -DE/DX =    0.0                 !
 ! A9    A(3,4,8)              127.6241         -DE/DX =   -0.0001              !
 ! A10   A(5,4,8)              126.4192         -DE/DX =    0.0                 !
 ! A11   A(1,5,4)              110.4731         -DE/DX =   -0.0001              !
 ! A12   A(1,5,9)              115.9627         -DE/DX =    0.0002              !
 ! A13   A(4,5,9)              133.5642         -DE/DX =    0.0                 !
 ! D1    D(5,1,2,3)              0.0003         -DE/DX =    0.0                 !
 ! D2    D(5,1,2,6)           -179.9998         -DE/DX =    0.0                 !
 ! D3    D(2,1,5,4)             -0.0003         -DE/DX =    0.0                 !
 ! D4    D(2,1,5,9)            179.9995         -DE/DX =    0.0                 !
 ! D5    D(1,2,3,4)             -0.0001         -DE/DX =    0.0                 !
 ! D6    D(1,2,3,7)           -180.0            -DE/DX =    0.0                 !
 ! D7    D(6,2,3,4)            180.0            -DE/DX =    0.0                 !
 ! D8    D(6,2,3,7)              0.0002         -DE/DX =    0.0                 !
 ! D9    D(2,3,4,5)             -0.0001         -DE/DX =    0.0                 !
 ! D10   D(2,3,4,8)           -179.9998         -DE/DX =    0.0                 !
 ! D11   D(7,3,4,5)            179.9998         -DE/DX =    0.0                 !
 ! D12   D(7,3,4,8)              0.0001         -DE/DX =    0.0                 !
 ! D13   D(3,4,5,1)              0.0002         -DE/DX =    0.0                 !
 ! D14   D(3,4,5,9)           -179.9996         -DE/DX =    0.0                 !
 ! D15   D(8,4,5,1)            180.0            -DE/DX =    0.0                 !
 ! D16   D(8,4,5,9)              0.0001         -DE/DX =    0.0                 !
 --------------------------------------------------------------------------------
 GradGradGradGradGradGradGradGradGradGradGradGradGradGradGradGradGradGrad


 Test job not archived.
 1\1\GINC-LEGACY-N17\Freq\RM062X\6-311G(d,p)\C4H4O1\CNS67\30-Mar-2020\0
 \\#N Geom=AllCheck Guess=TCheck SCRF=Check Test GenChk RM062X/6-311G(d
 ,p) Freq\\Cyclopentene o1cccc1\\0,1\O,-0.3496852678,-1.07698548,0.0003
 145309\C,-1.1379730175,0.0259822213,0.0001647227\C,-0.3809797806,1.149
 3215415,0.0000548617\C,0.9848402044,0.7055533271,0.000147246\C,0.93654
 79949,-0.6483568775,0.0003064404\H,-2.1998563658,-0.1530780854,0.00015
 44572\H,-0.7427775576,2.1645068926,-0.0000726493\H,1.8744380859,1.3141
 364863,0.000105168\H,1.6899757041,-1.417920026,0.0004252224\\Version=E
 M64L-G09RevD.01\HF=-229.9893388\RMSD=1.092e-09\RMSF=9.880e-05\ZeroPoin
 t=0.0706124\Thermal=0.074166\Dipole=0.0894933,0.2754611,-0.0000236\Dip
 oleDeriv=-0.4970088,-0.2137366,0.0000168,-0.210479,-1.0695229,0.000095
 5,0.0000131,0.0000942,-0.1828094,0.0172443,-0.0350664,0.0000051,0.0328
 104,0.6221361,-0.0000811,0.0000016,-0.0000822,-0.0843229,-0.0357644,-0
 .1138678,0.0000204,-0.1171032,-0.0892134,-0.0000205,0.0000193,-0.00002
 43,-0.2536125,0.0550235,0.0088632,0.0000084,0.00515,-0.1793805,-0.0000
 098,0.0000088,-0.0000054,-0.2532919,0.2288988,0.330657,-0.0000276,0.26
 7292,0.4048231,-0.00005,-0.0000222,-0.0000442,-0.0857126,0.0388278,-0.
 0023337,-0.000005,-0.034335,0.0959666,0.0000136,-0.0000017,0.0000138,0
 .2235603,0.1002579,0.0791227,-0.0000126,0.0609149,0.0267982,0.0000219,
 -0.0000099,0.000023,0.2055069,0.0105695,-0.0628421,0.0000014,-0.046757
 4,0.1210868,0.0000086,-0.0000007,0.0000075,0.2064093,0.0819514,0.00920
 36,-0.0000068,0.0425073,0.0673059,0.0000217,-0.0000083,0.0000175,0.224
 2729\Polar=62.4944631,-0.8494872,60.57805,0.0012076,-0.0039593,27.3474
 96\PG=C01 [X(C4H4O1)]\NImag=0\\0.49517801,-0.00405304,0.48615475,0.000
 01208,-0.00004358,0.09998834,-0.14701802,0.06131621,-0.00000873,0.8677
 6070,0.10340453,-0.22275573,0.00001966,0.13867169,0.63668846,-0.000013
 35,0.00001832,-0.06757317,0.00000464,-0.00005344,0.13063934,-0.0118141
 2,-0.01959272,0.00000109,-0.21033430,-0.15150315,0.00001361,0.57768709
 ,0.03029989,-0.09325768,0.00001338,-0.16872858,-0.33590159,0.00002655,
 -0.02443309,0.89735566,-0.00000434,0.00001170,0.01371500,0.00001561,0.
 00002722,-0.06668784,0.00001576,-0.00009111,0.12185089,-0.04482011,-0.
 01490007,0.00000021,-0.05533727,-0.06106039,0.00000504,-0.25487537,0.0
 6494090,-0.00001338,0.71182883,-0.06543645,-0.06060758,0.00000642,0.00
 338067,0.02621780,-0.00000138,0.03118430,-0.12661096,0.00000829,0.1595
 1635,0.76924275,0.00000596,0.00000825,0.01388805,-0.00000261,-0.000003
 47,0.01156132,-0.00000922,0.00000926,-0.05877448,-0.00000114,-0.000076
 01,0.12322547,-0.25092566,-0.04096878,-0.00000090,-0.10683268,0.043269
 32,-0.00000898,0.00074556,0.01515993,-0.00000200,-0.10235592,-0.002368
 12,-0.00000064,0.65149428,-0.08260401,-0.11896836,0.00000369,0.0186023
 5,-0.02216027,0.00000484,0.07923845,-0.02910392,0.00000731,-0.01985828
 ,-0.44772383,0.00004933,-0.14844287,0.84934632,0.00000331,0.00000478,-
 0.06857257,-0.00000572,0.00000553,0.01572052,-0.00000957,0.00000544,0.
 01152879,0.00000155,0.00004985,-0.06737531,0.00003382,-0.00009546,0.13
 037935,-0.01698549,-0.00140879,-0.00000026,-0.35299016,-0.05440950,-0.
 00000307,-0.00215489,0.00336790,-0.00000060,0.00012045,-0.00184317,0.0
 0000007,0.00247293,0.00339053,-0.00000039,0.37042473,0.03629092,0.0043
 7965,0.00000001,-0.06710718,-0.06839783,0.00000267,-0.01925676,0.00858
 740,-0.00000113,-0.00283696,-0.00411880,0.00000106,0.00042452,-0.00626
 843,0.00000103,0.05148512,0.06390801,-0.00000451,-0.00000107,-0.004887
 83,-0.00000167,0.00000298,-0.02860744,0.00000216,-0.00000048,0.0038737
 6,0.00000010,0.00000118,0.00556445,-0.00000012,0.00000104,0.00251664,0
 .00000417,-0.00000339,0.02198935,0.00028727,-0.00616783,0.00000050,0.0
 1183867,-0.01448041,0.00000203,-0.09081008,0.09757835,-0.00001273,0.00
 090590,0.02450613,-0.00000281,-0.00729419,0.00091434,-0.00000046,-0.00
 027050,0.00085578,-0.00000003,0.08377408,-0.00079164,-0.00320219,0.000
 00146,0.01290510,-0.00960236,0.00000126,0.09475932,-0.32812934,0.00003
 764,-0.00243117,0.00188443,-0.00000036,-0.00109001,-0.00031268,0.00000
 043,-0.00038546,0.00012745,-0.00000037,-0.10339166,0.33931302,-0.00000
 022,0.00000120,0.00913210,-0.00000110,0.00000053,-0.00124816,-0.000012
 42,0.00003770,-0.03032038,0.00000032,0.00000049,-0.00082569,-0.0000001
 8,0.00000049,0.00365311,0.00000013,-0.00000035,-0.00306833,0.00001344,
 -0.00003998,0.02353227,0.00247707,0.00205548,-0.00000046,-0.00481675,0
 .00241893,-0.00000053,-0.00936274,-0.01639942,0.00000164,-0.26459083,-
 0.14514645,0.00000979,0.00514763,0.00379035,-0.00000023,-0.00010022,-0
 .00111642,0.00000010,0.00080183,0.00036401,0.00000004,0.27079768,-0.00
 318091,-0.00525131,0.00000162,0.00431251,-0.00277172,0.00000086,0.0104
 5817,0.01198973,-0.00000111,-0.14226151,-0.15554674,0.00001054,-0.0236
 1735,-0.00295771,-0.00000061,0.00009592,0.00097075,-0.00000001,-0.0010
 8044,-0.00019727,-0.00000021,0.15454641,0.15354386,0.00000012,0.000001
 78,0.00921120,-0.00000076,0.00000078,0.00365531,-0.00000140,-0.0000019
 4,-0.00080305,0.00000939,0.00001039,-0.03116271,0.00000299,0.00000033,
 -0.00122683,-0.00000003,-0.00000004,0.00084678,0.00000021,-0.00000017,
 -0.00172077,-0.00001051,-0.00001071,0.02432193,-0.02637894,0.02371954,
 -0.00000352,-0.00227020,-0.00631101,0.00000060,0.00091886,-0.00178588,
 0.00000003,0.00912432,-0.00379327,0.00000060,-0.19245195,0.14496915,-0
 .00002231,-0.00051685,0.00126098,-0.00000020,0.00076703,0.00006150,-0.
 00000002,-0.00035368,0.00072720,0.,0.21116141,-0.01392929,0.01350845,-
 0.00000267,-0.00335278,-0.00131675,0.00000034,-0.00085451,-0.00492931,
 0.00000120,0.01889113,-0.00273708,0.00000140,0.15763336,-0.22185112,0.
 00002902,-0.00029256,0.00081180,0.00000011,0.00126576,0.00011895,0.000
 00013,-0.00051289,0.00022041,-0.00000042,-0.15884821,0.21617465,0.0000
 0095,-0.00000137,-0.00490113,0.00000034,0.00000021,0.00254013,0.,0.000
 00120,0.00561730,-0.00000209,0.00000078,0.00389891,-0.00002398,0.00002
 843,-0.02662371,-0.00000003,0.00000015,0.00177261,-0.00000015,0.000000
 09,0.00086585,0.00000016,-0.00000037,-0.00312187,0.00002481,-0.0000291
 2,0.01995191\\-0.00009653,-0.00032568,-0.00000082,0.00003586,0.0001086
 6,0.00000049,0.00017705,0.00013136,0.,-0.00005913,0.00021844,-0.000000
 27,0.00000082,0.00010563,0.00000061,0.00001829,-0.00008926,0.00000004,
 -0.00003365,-0.00001782,0.00000003,0.00002543,-0.00005074,-0.00000003,
 -0.00006814,-0.00008059,-0.00000004\\\@


 NO MATTER HOW THIN YOU SLICE IT, IT'S STILL BALONEY

                                   -- ALFRED E. SMITH
 Job cpu time:       0 days  0 hours  3 minutes 27.9 seconds.
 File lengths (MBytes):  RWF=     24 Int=      0 D2E=      0 Chk=      5 Scr=      1
 Normal termination of Gaussian 09 at Mon Mar 30 12:45:22 2020.
